16
Lattice="6.0292863588177 0.0 0.0 0.0 6.4555569043862 0.0 0.0 0.0 7.6143254496873" Properties=species:S:1:pos:R:3:masses:R:1:forces:R:3 energy=-71.04302788871883 pbc="T T T"
Li       3.12361530       5.01444954       5.56794707       6.94000000      -0.14694656       0.16733399       0.46389373
Li       0.07447917       1.22411395       5.69677725       6.94000000       0.25259305      -0.06082855       0.00197165
Li       0.04172749       1.15194038       1.87704888       6.94000000      -0.18777284      -0.20623145      -0.10475621
Li       2.96955618       5.34253738       2.09996185       6.94000000       0.34895449       0.14718305       0.31474534
Li       2.46767597       2.30047662       7.42020474       6.94000000       0.28131777       0.05528338       0.14277906
Li       5.73197260       4.38252365       3.98308826       6.94000000       0.36365701      -0.66948272      -0.21964033
P        0.08085333       4.35066611       0.00219948      30.97376200      -0.09561307       1.29760916       0.17800837
P        3.08925138       2.08034316       3.78077194      30.97376200      -0.88590171      -0.37078750      -0.55137977
S        5.36656107       5.46267211       5.92530830      32.06000000       0.41870352      -0.51058291       1.48267225
S        2.60602096       0.90366281       5.36120948      32.06000000      -0.97313900       0.25956004       0.56691851
S        2.38035200       1.21352170       2.04606787      32.06000000       0.32061016      -0.27293288       0.00400051
S        5.48743078       5.10604827       1.81736377      32.06000000      -0.65834363       0.97408378      -0.64945967
S        2.11133067       4.69662837       0.15579374      32.06000000      -0.19676618      -0.66041987      -1.30514008
S        5.08717540       2.05647743       3.78393852      32.06000000       0.91470185       0.42550242      -0.23984629
S        5.39682929       2.47824470       7.56398935      32.06000000       0.10146857      -0.54231176      -0.33089587
S        2.20225111       3.91796352       3.82821639      32.06000000       0.14247658      -0.03297816       0.24612880
32
Lattice="6.1444882370763 0.0 0.0 0.0 8.0424592086268 0.0 0.0 0.0 13.037805255605" Properties=species:S:1:pos:R:3:masses:R:1:forces:R:3 energy=-141.99100620913669 pbc="T T T"
Li       5.94958015       0.25201496       6.50733010       6.94000000       0.24608502       0.15202778       0.02965905
Li       1.10716981       4.37464090       8.55837010       6.94000000       0.00524433      -0.30243812       0.18362884
Li       0.10030201       3.50894027       2.18189487       6.94000000       0.01389971       0.21954193      -0.12210107
Li       3.41737142       0.77414899      12.79606143       6.94000000       0.05494082      -0.64345493       0.39964781
Li       3.51256982       4.48927002       4.44748013       6.94000000      -0.01358407       0.28255217      -0.10462344
Li       2.11259979       0.50944689       8.81144007       6.94000000       0.26120723      -0.35234731      -0.08015998
Li       5.66696995       7.15939241      10.86212554       6.94000000       0.17840902       0.20240586       0.19298483
Li       2.29223022       4.62943993       0.08499486       6.94000000      -0.05622471      -0.21198046       0.32108346
Li       4.02357987       4.27442922      10.88908510       6.94000000       0.17967862      -0.50928554      -0.20007633
Li       3.76814797       7.81436905       4.41767014       6.94000000      -0.12941552       0.00746494      -0.20840158
Li       0.80831787       0.20078529       2.14595023       6.94000000      -0.04558035      -0.01417424       0.09530582
Li       5.63018044       3.78291010       6.22374968       6.94000000      -0.07802415      -0.02923445       0.19119815
P        0.86468925       2.25707023      11.88370016      30.97376200      -1.81385283      -1.33731187      -1.55131056
P        4.86073014       6.12794973       1.11698993      30.97376200       0.07255268      -0.67528711       0.85095057
P        4.16545979       6.33230005       7.83077975      30.97376200      -0.04662408      -0.62196864      -1.03492978
P        2.07683027       2.20092988       5.29255003      30.97376200       0.17288334      -1.38472968      -0.33486283
S        4.85585019       2.18706976      11.79540018      32.06000000       1.98588391       0.41906498      -0.35269255
S        0.77097106       5.95133994       1.37624002      32.06000000      -0.58658746      -0.15540132      -0.29231045
S        2.14115015       6.22333984       7.64801010      32.06000000      -0.02881069       1.03616612       0.34789677
S        4.13222978       2.11859005       4.87416015      32.06000000      -0.30294538       0.65389383       0.32178408
S        1.69388978       2.16155969       0.63313421      32.06000000      -0.00611810       0.64632403       2.28243419
S        3.92478019       6.12436012      12.30060000      32.06000000       0.79556992       0.76105290      -0.18073100
S        4.90372988       6.23090985       5.78532017      32.06000000      -0.12387310      -0.04396942       0.78753174
S        1.63913010       2.23763029       7.27130013      32.06000000      -0.50864398       0.47719505       0.53759808
S        1.70902980       0.46076104      11.15709968      32.06000000      -0.75914552       0.32063577      -0.51312313
S        4.39215024       7.88761012       2.00289978      32.06000000      -0.09330112       0.64850394      -0.00267537
S        4.93411991       8.02730997       8.76885016      32.06000000      -0.63156677      -0.68876811      -0.61452168
S        1.40357992       0.32021017       4.69069986      32.06000000      -0.04263627       0.53487008      -0.49239221
S        3.92922019       4.53378991       2.06636989      32.06000000       0.41000008       0.08286055      -0.21593358
S        1.52033011       3.93527006      10.94750013      32.06000000      -0.03306434       0.26089857      -0.22856574
S        1.12438973       3.79241009       4.45348022      32.06000000       0.41196945       0.08253483      -0.21990388
S        4.73195027       4.48774004       8.54982005      32.06000000       0.51167431       0.18235786       0.20761177
32
Lattice="12.271989885764 0.0 0.0 0.0 6.5697852413642 0.0 0.0 0.0 7.7490621094368" Properties=species:S:1:pos:R:3:masses:R:1:forces:R:3 energy=-141.21023890843753 pbc="T T T"
Li       3.44840952       4.64694973       5.80554953       6.94000000      -0.06576255       0.16865077       0.27670790
Li       6.77163002       6.28896039       3.93750968       6.94000000      -0.22756957       0.17491036       0.02022789
Li      12.24219963       4.81884472       3.86375993       6.94000000       0.06336210      -0.44803529      -0.25855774
Li       6.20136047       1.78359997       6.13094011       6.94000000       0.14382925      -0.37095017      -0.50784346
Li       0.08847000       1.85147021       2.22009992       6.94000000       0.34815374      -0.32586885       0.41537910
Li       6.63190974       2.68244959       2.04194990       6.94000000      -0.01101435      -0.14745037      -0.16807915
Li       3.10533009       5.17522945       2.28273002       6.94000000       0.02968754      -0.10182031       0.10693072
Li       9.09316039       5.26459039       5.81592181       6.94000000       0.05254627      -0.10104716      -0.44858140
Li       2.84308994       2.37717034       0.29038842       6.94000000      -0.07769364      -0.06403577       0.13591189
Li       9.17710939       4.98145472       1.99764188       6.94000000       0.35998697       0.18261864       0.18679670
Li       9.97505013       0.63200503       0.31662838       6.94000000      -0.16849355       0.30962666      -0.21071588
Li       0.33751040       1.09486030       5.98193975       6.94000000      -0.69563748       0.34636547      -0.02809592
P        0.02880972       4.64626005       0.01764344      30.97376200      -0.21500828      -0.42808959      -0.41281184
P        6.11723966       4.87577939       0.16408141      30.97376200      -0.11372953      -1.03387876      -1.63744636
P        3.09455038       1.86525042       4.23201044      30.97376200       1.59787095       0.89505372       0.23368696
P        9.22929971       1.99444011       4.05294983      30.97376200       0.42160057      -0.00887250       0.43433724
S        5.47779045       5.79422984       6.17241944      32.06000000       0.56727152       0.46175009       0.17633491
S       11.60169993       5.48156040       5.99926043      32.06000000      -0.26802782       0.21240836       0.62013138
S        2.55398027       0.98678457       5.99007976      32.06000000       0.95374019      -0.13194267      -0.01903383
S        8.63672950       1.10303959       5.78539033      32.06000000      -0.65584928      -0.16329657       0.33360788
S        2.36042031       0.86271966       2.71870964      32.06000000      -0.93675393      -1.24135775      -1.73714490
S        8.58611981       0.83702211       2.52668982      32.06000000      -0.36564048      -0.61573396      -0.86604356
S        5.37817993       5.76858016       1.77756951      32.06000000       0.51473851       0.40239883       0.54612085
S       11.44779936       5.72275041       1.52161016      32.06000000      -0.15335357       0.36978383       0.64144623
S        2.00747051       4.70548958       0.19349246      32.06000000       1.21885365       0.42830485      -0.25799743
S        8.21900937       4.50524016       0.03849723      32.06000000      -1.17432117       0.16990292       0.25162158
S        5.20803002       2.18698027       3.86741944      32.06000000      -1.30119144      -0.52340791       1.29083712
S       11.22990037       2.23967988       4.23013037      32.06000000       0.49439887       0.28899294      -0.25732767
S        5.18332037       2.96241050       7.74012442      32.06000000       0.47768140       0.57130069       0.72756268
S       11.86119975       2.67770033       0.19374159      32.06000000      -0.64383732      -0.69420511      -0.48415465
S        2.18558004       3.68852941       4.05195948      32.06000000       0.04472816       0.93605492       0.11835033
S        8.27273001       3.75194001       3.67812031      32.06000000      -0.21456573       0.48186967       0.77784246
32
Lattice="6.0964389465578 0.0 0.0 0.0 7.979689901539 0.0 0.0 0.0 12.935911871922" Properties=species:S:1:pos:R:3:masses:R:1:forces:R:3 energy=-141.1570320763367 pbc="T T T"
Li       3.86741992       1.68017979       8.04258016       6.94000000      -0.37515343       0.22102409      -0.15539721
Li       0.33045991       7.86413007       6.51451017       6.94000000       0.24452207      -0.23062489      -0.37139885
Li       0.22202072       7.33137020      10.00889997       6.94000000      -0.47732513      -0.16491119      -0.08256915
Li       2.43336983       7.52532413       0.38174986       6.94000000       0.10742439      -0.07934311      -0.18305954
Li       3.00720019       4.78392990       3.41379000       6.94000000      -0.77114985       0.31635587       1.33788298
Li       1.84668025       4.00209026       8.72183990       6.94000000       0.02383581      -0.40611193       0.29637459
Li       6.09071805       1.83822022       3.08127010       6.94000000      -0.13433774       0.40488517      -0.27225028
Li       4.44565984       4.05252000      10.90190025       6.94000000       0.08129313       0.07177121       0.50937512
Li       5.27038976       0.61651519       0.06263359       6.94000000      -0.03341233       0.05717259      -0.06616452
Li       3.79031887       7.93622412       4.26970991       6.94000000      -0.30948806       0.12738647       0.71342558
Li       2.52933022       4.16048976       0.74314311       6.94000000      -0.43927330      -0.43890521      -0.64760475
Li       5.90501686       4.08869993       6.56488992       6.94000000      -0.28325568       0.05722072       0.02976617
P        1.14741016       1.84564995      11.66629981      30.97376200       0.86511891      -1.07527040      -0.41058703
P        5.43315980       6.02523010       1.27681988      30.97376200      -1.26491950      -0.48914322      -0.01727027
P        3.69072988       5.89754994       7.55526009      30.97376200       0.38824347       1.19103129      -0.81430343
P        1.99946005       2.25940977       5.47719011      30.97376200       0.28287606      -1.87218399       0.14105499
S        5.32357021       1.83113981      11.00399975      32.06000000      -0.35418722      -0.02566360       0.17276261
S        1.24080029       5.88248991       1.78694002      32.06000000       1.21060774       0.25615778       0.24579554
S        1.69294025       6.15954989       7.90497012      32.06000000       0.12477214      -0.15996271      -0.25475080
S        4.04525000       2.21969025       5.55969017      32.06000000      -0.05382539       0.01590701      -0.39763613
S        1.48102011       1.65349995       0.76556703      32.06000000      -0.54524747       0.22608706       0.21243585
S        5.17311986       6.20763007      12.17299984      32.06000000      -0.45717469       0.03297976       0.65951597
S        4.26816995       5.91665008       5.53285974      32.06000000      -0.11421163      -0.66779965       0.41151021
S        1.25713021       1.96338011       7.39068977      32.06000000       0.18741821       0.37362606       0.32312125
S        2.08003974       0.23945105      10.77320016      32.06000000       0.57667770       0.35742176       0.67477402
S        4.55411976       7.81791967       2.12980009      32.06000000       0.06085602      -1.07277911      -0.84275617
S        4.82226979       7.55680005       8.13952024      32.06000000      -0.39760201      -0.50056470       0.84387979
S        1.41775004       0.59242511       4.33714018      32.06000000       0.40716704      -0.34926920       0.59180242
S        4.50282005       4.23082987       1.96817984      32.06000000       0.94703753       0.57886086      -0.83190540
S        2.05700007       3.52314975      11.14070020      32.06000000       0.38343354       1.76346235      -0.26460933
S        1.00092005       3.72198998       4.62688990      32.06000000       0.05102878       1.42442769      -1.06002276
S        4.41503987       4.24963007       8.58094997      32.06000000       0.06825090       0.05675520      -0.49119147
32
Lattice="6.2023998032269 0.0 0.0 -0.56448660849148 12.39199785326 0.0 -3.1011999016134e-05 0.0 8.4054425941347" Properties=species:S:1:pos:R:3:masses:R:1:forces:R:3 energy=-139.65572253183745 pbc="T T T"
Li       4.55187981       4.21352960       8.21102899       6.94000000       0.30079212      -0.25356202       0.39110880
Li      -0.18544989       8.49615951       4.23931980       6.94000000       0.04290324       0.25973860       0.55648917
Li       2.80584100       6.27949997       4.56465986       6.94000000      -0.28841524      -0.57163402       0.35819896
Li       3.43904896      10.98989948       7.94884673       6.94000000       0.43163821       0.34445418       0.59870028
Li       2.45232034       6.71018965       8.08711559       6.94000000      -0.63936205      -0.66437369      -0.48775606
Li       3.59578919      10.54759953       3.61643015       6.94000000      -0.15669045       0.57381037       0.51620835
Li       4.00954011       1.89043006       6.01253008       6.94000000      -0.13440450      -0.34023777       0.00665163
Li       1.11014893       0.63989973       3.54335968       6.94000000       0.01945055       0.47387511       0.30593118
Li       5.62663041       9.10982991       8.17035986       6.94000000       0.46797717       0.03910606      -0.50570296
Li       0.63280480       5.30103977       1.81755992       6.94000000      -0.00232771       0.05804110       0.06108903
Li       1.37234112       0.30870026       0.68915671       6.94000000      -0.16796559       0.40681721      -0.36481537
Li       4.95390014       3.71833000       3.89959017       6.94000000       0.19793045      -0.05587275      -0.40565515
P        0.19016310       5.30373968       6.08502001      30.97376200       1.08534952       1.05245170       2.47175884
P        0.63147997      11.71269986       6.02657976      30.97376200      -1.06696788       0.30597962       1.40318570
P        4.47001000       1.59542966       1.88123004      30.97376200      -0.11588142      -0.84692666       1.39148276
P        4.19212016       7.63849973       1.89019002      30.97376200      -2.23201758      -0.73086744      -1.71298371
S        1.51235968       1.33576991       6.27822972      32.06000000      -0.37227394      -0.77136715      -0.57867018
S        0.76700799       7.38054006       6.24569007      32.06000000      -0.71344542      -0.94048992      -0.22326449
S        0.08845242       2.40134964       2.27289980      32.06000000       0.46254785       0.28567097      -0.58959545
S       -0.12418197       8.14894979       1.95963023      32.06000000       1.98087399      -0.43141957      -0.13174455
S        4.45786011       4.60832971       5.98173951      32.06000000      -0.90571629       0.79532317       0.08083898
S        4.85765998      11.18169939       6.14234011      32.06000000      -1.24070572       0.25370507      -0.57064103
S        3.55026977       5.58917970       1.43112995      32.06000000       0.75204572       1.16024276       1.42910030
S        4.36019961      11.92279933       1.88627011      32.06000000      -0.05419810       0.46572701      -0.47048256
S        3.23305982       2.24434023       3.45185009      32.06000000       0.17527900      -0.77001744      -0.09251150
S        3.27544020       8.24880967       3.60429019      32.06000000       0.15444605      -0.01029643      -0.00353673
S        0.94208623       4.57827971       4.42123991      32.06000000       1.24495306      -0.22458905      -0.95103233
S        1.02270006      10.83709964       4.26268982      32.06000000       1.20331057      -0.29439893      -0.80248786
S        3.42979002       2.08378987       0.25514874      32.06000000      -0.10915936       0.02093617      -0.82592678
S        3.41481991       8.61486972       0.15972172      32.06000000       0.22293231       0.05026380       1.07477482
S        1.07469974       4.51842965       7.96884947      32.06000000      -1.04525643       0.37514588      -1.87655602
S        1.21339966      10.72009943       7.75451004      32.06000000       0.50235785      -0.01523595      -0.05215607
32
Lattice="6.0254233651968 0.0 0.0 0.0 7.886676642706 0.0 0.0 0.0 12.78516507591" Properties=species:S:1:pos:R:3:masses:R:1:forces:R:3 energy=-137.7386503021371 pbc="T T T"
Li       1.49261064       3.74513141       8.57521864       6.94000000      -0.40901036       0.01094442       0.39707005
Li       0.91112234       7.52141849       7.58528677       6.94000000       0.62922041       0.31549740       0.29216992
Li       0.16698677       7.46894368      10.44752496       6.94000000      -0.21470852      -0.38449569       0.42385293
Li       1.21456869       3.19800671       1.28113395       6.94000000       0.07867665      -0.22463239       0.23740351
Li       1.35048055       7.33584389       2.90876048       6.94000000      -0.06017075       0.71708032       0.19157542
Li       3.32225274       4.41029357       3.94236582       6.94000000       0.18084983      -0.43781828      -0.21474546
Li       3.85255206       0.91311013       0.78134376       6.94000000       0.36910775      -0.31801430      -0.00739339
Li       2.56958397       5.84250537      12.43823445       6.94000000      -0.35528687      -0.36542071      -0.43981930
Li       4.87361489       4.38100278      10.87804748       6.94000000      -0.16281226      -0.24739804      -0.03371965
Li       3.98774088       1.98593375       8.78885666       6.94000000      -0.27545526      -0.10642170      -0.01399918
Li       3.81843069       0.95927391       5.55504869       6.94000000      -0.28076311       0.67331580      -0.11603716
Li       0.33071198       6.08963510       5.62926262       6.94000000       0.01362071      -1.18658820      -0.16473686
P        2.14887325       1.74307002      11.38130651      30.97376200      -3.93701133       0.14116939      -0.70092741
P        5.15954171       5.38047229       1.20147243      30.97376200      -1.58822510      -0.76685839      -1.25264134
P        3.67422966       6.05933144       7.93799216      30.97376200       0.43351148      -1.43885202       2.34783720
P        0.93480105       2.19695854       5.08917742      30.97376200       0.54289962       0.32445846      -1.46986401
S        1.71166852       0.21954474      12.70214077      32.06000000      -0.57014067       0.86328862       0.19361236
S        1.10087016       5.58515110       1.45942201      32.06000000       1.36028298      -0.77914359       0.80880919
S        2.26129560       5.95754034       9.41844531      32.06000000      -0.35251456      -0.98406224      -0.59386419
S        2.21522340       2.91179789       6.48781194      32.06000000       0.76978911      -0.60959332      -0.01795743
S        1.35178867       1.21611060       9.52693427      32.06000000       0.26959538       1.34960595      -0.61407227
S        4.73501689       6.49160676      12.22716086      32.06000000       0.23935194      -0.70890885       0.20540605
S        3.08164072       6.70882146       6.19625858      32.06000000      -1.85983544      -0.44394538      -2.45372306
S        5.57036472       3.64816789       4.94690090      32.06000000       0.16479566      -0.15625600      -0.66267417
S        1.02820355       3.54746981      11.71730942      32.06000000       1.16793837      -0.81806748       0.09459750
S        4.40280336       6.36805485       2.73589168      32.06000000      -1.03297037       1.01450618       1.18582527
S        4.80721833       7.61331644       8.46891752      32.06000000       1.31550403       0.72539958       0.73923694
S        6.00265330       0.35250595       5.13465430      32.06000000       0.12915603       0.34745121       0.12240719
S        4.17138252       3.50296965       1.05304878      32.06000000       1.11325839       1.53961588       0.43797109
S        4.02843658       1.85662635      11.22584516      32.06000000       3.33359734       0.60173379      -0.48424459
S        2.30431712       1.81567939       3.39393901      32.06000000      -0.76455298       0.41269108       0.90960761
S        4.76434323       4.26425960       7.87895928      32.06000000      -0.24769810       0.93971852       0.65303721
32
Lattice="6.3475335319216 0.0 0.0 0.0 8.3082866399321 0.0 0.0 0.0 13.468640975378" Properties=species:S:1:pos:R:3:masses:R:1:forces:R:3 energy=-137.28197982533675 pbc="T T T"
Li       1.92204014       8.09765009       3.33436000       6.94000000      -0.23818681      -0.03810029      -0.20162427
Li       5.54504978       3.45101307       6.73325981       6.94000000      -0.33070161       0.13259419      -0.07847938
Li       3.12079025       0.09297359       9.22533004       6.94000000       0.08832533      -0.26811541      -0.51075334
Li       4.79473323       7.74140048       5.00246007       6.94000000      -0.25477918       0.23398200       0.05300176
Li       5.06905332       3.19172013       3.38559983       6.94000000      -0.37894139      -0.08681821       0.28626809
Li       3.01771329       3.52726027       9.45372001       6.94000000       0.28632973       0.45510090       0.56018228
Li       4.06890356       1.04663973      13.45702309       6.94000000       0.23821851      -0.23167078       0.18254303
Li       2.13559021       4.77539991       6.91563017       6.94000000      -0.45375857       0.07780910       0.03858410
Li       1.38571989       3.89930000       2.61321989       6.94000000       0.35166048      -0.11384489      -0.22981528
Li       5.80686967       0.12670375      10.90490011       6.94000000      -0.11956416      -0.38585048      -0.17730237
Li       5.58405982       4.26889022      13.42770764       6.94000000       0.14089433      -0.04749992      -0.87038437
Li       2.21951348       6.76195003      12.40148095       6.94000000      -0.04379740      -0.31315970       0.13617494
P        1.66559978       2.13518968      12.21750022      30.97376200      -0.28643181      -1.07771585       0.84389849
P        5.76482995       6.77921024       1.27947995      30.97376200      -1.26394820      -1.09904654      -1.95963461
P        4.57085001       5.84994022       8.24051022      30.97376200       0.39580318       1.33094057       0.49586168
P        1.66680010       1.26917029       6.06763015      30.97376200      -0.23185567       1.00722404      -2.48195001
S        6.07552014       2.27401024      11.55999985      32.06000000      -0.02656185       0.07642415       0.15927843
S        4.35273352       5.11835017       1.71309012      32.06000000       1.20800043       0.23863571       0.85277617
S        2.67218022       5.96264005       9.07460976      32.06000000       0.26172199      -0.70277194      -0.21448998
S        1.98396985       1.94027977       7.97299024      32.06000000      -0.31101853      -0.59598784      -0.75080179
S        2.96838026       0.46595212      11.47556115      32.06000000      -1.19331935       1.42627386       0.06257780
S        5.26777999       6.86132003      12.66509972      32.06000000       0.16870919      -0.21673379       0.82440439
S        4.25196008       5.53869019       6.24221018      32.06000000      -0.03017895      -0.12398984      -1.12092301
S        0.74019604       7.81932280       5.60024983      32.06000000       0.73729192       0.18316482       0.51860234
S        2.46522968       3.92631003      11.90409964      32.06000000       0.89901043       0.08467307      -0.29804190
S        1.36666650       6.10327981       1.17651026      32.06000000      -0.15387545      -0.11636141       1.37196033
S        5.41137009       7.72067007       8.52738001      32.06000000      -0.27485213      -0.10814091       0.23752798
S        3.15666968       1.41934024       4.55723011      32.06000000       1.00974598      -0.69873893       0.75441008
S        5.25128021       0.14545310       2.24758990      32.06000000      -0.05221494      -0.13823581       0.56349339
S        1.52062021       1.48418981       0.73905919      32.06000000       0.60499609       0.92316765      -0.17845602
S        0.60163827       2.90008016       4.99449011      32.06000000      -0.26720897       0.41216586       0.64869674
S        5.82448027       4.37355026       8.81883019      32.06000000      -0.47951261      -0.21937338       0.48241431
32
Lattice="13.492710157779 0.0 0.0 -0.30699963421995 6.7393658550278 0.0 0.0 0.0 9.1426064320704" Properties=species:S:1:pos:R:3:masses:R:1:forces:R:3 energy=-119.74188110883733 pbc="T T T"
Li       2.28694961       3.74223959       3.66749672       6.94000000      -0.57012142      -0.52977417       0.59986574
Li       1.83769093       0.35525632       2.70489305       6.94000000      -0.25629079      -0.20376259      -0.00897810
Li       4.61632974       4.74313018       1.91448064       6.94000000       0.28651263       0.37726674      -0.34886817
Li       3.68729053       3.56574010       5.92985047       6.94000000      -0.62704791      -0.28916041       1.34808285
Li       2.06280061       2.19820536       0.70760629       6.94000000       0.08320183      -0.43481437       0.14019563
Li      10.77979974       0.18889120       7.82239332       6.94000000       0.09761763       0.22057606      -0.32595771
Li       8.12340083       4.38020597       2.45879951       6.94000000      -0.78761699       0.35468937       0.81051562
Li       3.59318967       0.26261806       8.13989028       6.94000000       0.24997974       0.26788776       0.29604063
Li      10.12780095       4.16881162       6.39989332       6.94000000       0.23895063      -0.60952461       0.17837184
Li      -0.10881061       3.67830978       8.06469406       6.94000000       2.05145679      -0.59675623      -0.83855373
Li      13.16955435       1.52585416       5.18264982       6.94000000       0.45344837       0.24389815      -0.07956117
Li       9.10098007       1.31559051       4.02064952       6.94000000       0.30866853      -0.41941505       0.67934398
P        8.96887969       1.23879405       1.08849336      30.97376200      -0.95793593       0.34039884       0.96809598
P        9.90171035       4.05038071       0.86659360      30.97376200       1.35025861       0.85163193      -2.48609122
P        6.50130993       3.91381560       7.72877684      30.97376200      -2.45587353       0.73243458       1.34022164
P       11.88869947       1.61770443       2.25186046      30.97376200       3.77919847      -0.11313278       0.23377417
S        9.16009028       5.53031649       4.96704036      32.06000000      -0.96271113       0.82210431      -0.45560854
S        5.03205093       3.25763137       4.25522973      32.06000000      -1.29097424       0.14090285      -1.26564075
S        9.47931027       6.15493451       1.46486981      32.06000000       1.02803170      -1.74914486      -0.11637820
S        2.10089053       1.23747042       4.84121004      32.06000000       0.42775099       0.42546451       1.09997164
S       11.07920028       2.25685007       5.56314020      32.06000000      -0.53639979      -0.81668642      -0.07354644
S       -0.00051002       0.50363429       1.23599027      32.06000000      -1.03672673       0.02649396      -0.46718296
S        3.85081948       0.58983922       1.61121040      32.06000000      -0.47009494      -0.24803032      -0.10044990
S        6.88574962       3.94040028       4.47490995      32.06000000       1.92063210       0.00593752      -0.06409661
S        8.15968004       2.85582521       0.02567393      32.06000000       0.14099083       0.33760956      -0.69213938