16
Lattice="6.0292863588177 0.0 0.0 0.0 6.4555569043862 0.0 0.0 0.0 7.6143254496873" Properties=species:S:1:pos:R:3:masses:R:1:forces:R:3 energy=-71.04302788871883 mtt::r2scan_energy=-112.58644215 pbc="T T T"
Li       3.12361530       5.01444954       5.56794707       6.94000000      -0.14694656       0.16733399       0.46389373
Li       0.07447917       1.22411395       5.69677725       6.94000000       0.25259305      -0.06082855       0.00197165
Li       0.04172749       1.15194038       1.87704888       6.94000000      -0.18777284      -0.20623145      -0.10475621
Li       2.96955618       5.34253738       2.09996185       6.94000000       0.34895449       0.14718305       0.31474534
Li       2.46767597       2.30047662       7.42020474       6.94000000       0.28131777       0.05528338       0.14277906
Li       5.73197260       4.38252365       3.98308826       6.94000000       0.36365701      -0.66948272      -0.21964033
P        0.08085333       4.35066611       0.00219948      30.97376200      -0.09561307       1.29760916       0.17800837
P        3.08925138       2.08034316       3.78077194      30.97376200      -0.88590171      -0.37078750      -0.55137977
S        5.36656107       5.46267211       5.92530830      32.06000000       0.41870352      -0.51058291       1.48267225
S        2.60602096       0.90366281       5.36120948      32.06000000      -0.97313900       0.25956004       0.56691851
S        2.38035200       1.21352170       2.04606787      32.06000000       0.32061016      -0.27293288       0.00400051
S        5.48743078       5.10604827       1.81736377      32.06000000      -0.65834363       0.97408378      -0.64945967
S        2.11133067       4.69662837       0.15579374      32.06000000      -0.19676618      -0.66041987      -1.30514008
S        5.08717540       2.05647743       3.78393852      32.06000000       0.91470185       0.42550242      -0.23984629
S        5.39682929       2.47824470       7.56398935      32.06000000       0.10146857      -0.54231176      -0.33089587
S        2.20225111       3.91796352       3.82821639      32.06000000       0.14247658      -0.03297816       0.24612880
32
Lattice="5.8160697488507 0.0 0.0 -0.52932632391265 11.620100233321 0.0 -2.9080348744254e-05 0.0 7.881879562945" Properties=species:S:1:pos:R:3:masses:R:1:forces:R:3 energy=-139.99160621453666 mtt::r2scan_energy=-222.16698291 pbc="T T T"
Li       2.18338981       0.42282478       0.29455194       6.94000000      -0.09514050       0.37547029      -0.41070573
Li       1.62009007       5.81321987       0.48266574       6.94000000      -0.23292185       0.12273900       0.13335685
Li       4.07765988       4.50906976       3.78381982       6.94000000       0.50606037       0.18656548      -0.46259805
Li       4.14511000       9.58557971       3.76301981       6.94000000      -0.57243328       0.23774210       0.36387947
Li       4.14135108       4.61907956       7.83458561       6.94000000       0.23301006       0.35442310       0.89378692
Li       3.06735971       9.69257969       0.11793303       6.94000000      -0.07738341      -0.61355333      -0.73988350
Li       2.50365983       0.11435091       4.19012987       6.94000000       0.04409179       0.00977440      -0.11271758
Li       1.82784997       6.68597988       3.65148969       6.94000000      -0.69774730      -0.01418683       0.01282075
Li       4.58464959       1.84187019       6.10953990       6.94000000       0.11788892      -0.25966574       0.73283793
Li       5.00928956       7.42385942       6.11896950       6.94000000      -0.00565625      -0.04728949      -0.09468090
Li       0.38962898       2.36448012       4.09505981       6.94000000       0.85523040       0.13184441      -0.24313700
Li      -0.32875509      10.08559944       1.49663004       6.94000000       0.15276641       0.39554318       0.43111052
P        1.11489986       4.78361966       5.71543953      30.97376200       1.05310252       0.31333767      -0.90448592
P       -0.06102744      10.69479960       5.81558992      30.97376200      -0.70802366       2.04835727       0.08426788
P        4.51730008       1.09289999       2.08324988      30.97376200      -1.02288577       2.46512016       0.12258270
P        4.97341953       6.93126972       1.89852976      30.97376200      -1.58549805      -1.88339855       0.97868046
S        1.23307018       1.06987999       5.98244947      32.06000000      -0.61690233      -0.64301458      -0.00706169
S        1.48983977       6.72932996       6.02674001      32.06000000      -0.40912144       1.20728326       0.21716982
S        0.60135486       0.89952207       1.99510967      32.06000000       2.98724853      -0.17390816       0.34156059
S        0.79871911       7.98292970       1.89182965      32.06000000       1.17800423       0.46248300      -0.35894311
S        4.94973999       4.39172008       5.83195983      32.06000000       0.15386578      -0.15442672      -0.29785508
S        3.65450009      10.75639934       5.92416955      32.06000000       0.55457018      -0.24127425       0.01803920
S        5.58940995       4.89425003       1.95291001      32.06000000      -1.15161535       1.70744989      -0.83755723
S        3.11905003      10.92019963       2.01965988      32.06000000      -0.84598009      -1.55715315       0.22239827
S        4.01837959       2.00938987       3.88300998      32.06000000      -0.62979705      -0.39095751      -1.07917117
S        3.90532973       7.34291950       3.71712986      32.06000000       0.87899203      -0.37842339      -0.63216222
S        1.91760007       4.35415990       3.88213001      32.06000000      -1.03320722      -0.68057139       0.31991008
S        0.53356508       9.71850948       4.20322999      32.06000000       0.52901789      -0.20132594      -0.77464382
S        3.85055980       2.32203967       0.60281469      32.06000000      -0.36589042      -1.37540796       0.22362473
S        3.58117981       7.23458997       0.34676920      32.06000000       1.00850824       0.07205160       0.11140268
S        2.11457000       3.81762980       7.12425971      32.06000000      -0.43078145      -0.85739318       0.81430393
S        0.64004917       9.68406962       7.36578945      32.06000000       0.22862808      -0.61823463       0.93387022
32
Lattice="6.2739101652778 0.0 0.0 -0.57099483805209 12.534801966963 0.0 -3.1369550826389e-05 0.0 8.5023403168828" Properties=species:S:1:pos:R:3:masses:R:1:forces:R:3 energy=-139.88894940363753 mtt::r2scan_energy=-222.77044305 pbc="T T T"
Li       2.44435869       0.15079029       0.03579015       6.94000000       0.75025697      -0.18571254       1.25843657
Li       1.24774898       7.99492027       5.00381038       6.94000000       0.55207677       0.55781924      -0.77413935
Li       4.34867990       5.10606006       0.24818773       6.94000000      -0.33903931      -0.07160469       0.20152194
Li       0.55718722       2.66960022       4.05020991       6.94000000       0.26826320       0.46067683       0.57611756
Li       0.70031707       2.57096996       0.21304630       6.94000000      -0.06915518       0.23586097      -0.34209376
Li       4.51747882      10.74129997       4.30681033       6.94000000       0.15255389      -0.27130287       0.14450337
Li       2.75131978       0.44427001       4.00692997       6.94000000      -0.00351859      -0.08012952      -0.05408282
Li       1.04113030       5.85978002       2.22059027       6.94000000       0.05159465       0.06429334       0.18879780
Li       4.83849034       1.59472005       6.38939027       6.94000000       0.19149839      -0.50723557       0.06730547
Li       0.89480138       7.87777005       0.05383015       6.94000000       0.13672480      -0.14409369      -0.45443414
Li       4.86025328       9.86697036       0.79313016       6.94000000       0.16205397       0.45977934      -0.38180153
Li       4.18138985       5.52550044       4.81556986       6.94000000      -0.17456693       0.15628953       1.03556164
P        0.46430574       5.44169041       6.48526000      30.97376200      -0.03849695      -0.49238354      -0.17821892
P        0.61495487      11.49870021       6.57067992      30.97376200      -1.97012753      -0.16899950      -0.55342939
P        5.12331017       1.17492018       2.13383025      30.97376200       0.70893687      -0.01969149      -0.45990537
P        4.34672997       7.54387004       2.53143994      30.97376200      -2.12162960      -0.26091362       1.39707647
S        1.69467975       1.00883032       6.69457020      32.06000000      -0.29791845       0.40488818      -0.57026354
S        5.90498229       7.28530025       6.38753005      32.06000000       0.25931741      -0.14579481       0.38771403
S        0.94182873       1.38325979       2.26744007      32.06000000       0.37865606      -0.40893827      -0.99652008
S        0.00587113       8.04733000       2.22558995      32.06000000       0.31874325       0.31065251       0.06283015
S        5.18660013       4.15813999       6.77744039      32.06000000      -0.68552705      -0.34455880      -0.88456668
S        4.77709009      11.27720044       6.58215992      32.06000000       0.62848397       0.60725698       0.43821933
S        4.07090002       5.44072988       2.66059026      32.06000000       0.34509896       0.67703919      -1.49366395
S        3.88451030      11.80240012       2.23654985      32.06000000      -0.30961975      -0.09569134      -0.14018683
S        4.63839025       2.21579010       3.80723016      32.06000000      -1.38060960       0.21096927       0.52177545
S        3.74711982       8.35396046       4.39748025      32.06000000       0.14094418      -0.51438008      -0.78853556
S        1.35374983       4.91330044       4.57097018      32.06000000       0.21699940       0.49368754       1.72598437
S        1.22460013      10.94430049       4.73858020      32.06000000       0.25141311      -0.62519049      -0.28497162
S        4.48688034       2.10094994       0.36812670      32.06000000       0.19538924      -0.33175418       1.19039551
S        3.03658005       8.39310025       1.19611031      32.06000000       0.88248368      -0.16392883      -0.28538728
S        1.43834974       5.17818995       8.35549004      32.06000000       0.67707557      -0.17033346      -0.68646139
S        1.29728025      10.41140021       8.14684990      32.06000000       0.12164463       0.36342435       0.13242255
32
Lattice="5.8140498794464 0.0 0.0 -0.5291424935783 11.616099559942 0.0 -2.9070249397232e-05 0.0 7.879142256127" Properties=species:S:1:pos:R:3:masses:R:1:forces:R:3 energy=-140.61044585623677 mtt::r2scan_energy=-222.81006017 pbc="T T T"
Li       4.48252083       1.39712026       6.22844977       6.94000000      -0.27518306       0.05473781      -0.62627153
Li       1.57406970       5.22424998       1.23808971       6.94000000      -0.03354669       0.24095281       0.11672209
Li       4.10446979       4.92090019       3.93497977       6.94000000      -0.19450802      -0.71939898       0.64650976
Li       3.88269984       9.46630985       3.81088992       6.94000000       0.26989343      -0.25210133       0.53153436
Li       3.89246104       5.46541968       7.52336775       6.94000000       0.35829090       0.13448608       0.03897028
Li       2.05443115      11.60950003       7.58546413       6.94000000       0.28573661       0.43321543       0.27424704
Li       2.31465000       0.07846467       3.40114999       6.94000000      -0.16012113      -0.46091187       0.56159569
Li       1.35257010       7.59058980       4.00235996       6.94000000       0.38311537      -0.71185805       0.06571926
Li       0.35495007       2.57356011       7.84738010       6.94000000       0.26864349       0.21242348      -0.02697666
Li       5.10875970       8.19039974       6.97910989       6.94000000      -0.44078519      -0.38931986      -0.14706356
Li       0.36899972       2.44359981       3.75685996       6.94000000       0.13118023       0.46623580       0.12861082
Li       0.19681722      10.00009951       1.56286021       6.94000000      -0.27850708      -0.01953561       0.31913905
P        1.13268971       5.07968015       5.69582990      30.97376200       0.63439706      -0.39010372       0.61161161
P       -0.06068473      10.71779978       5.80202991      30.97376200      -0.20964934       0.86625887      -1.20577222
P        4.56090992       0.83054982       2.12129970      30.97376200       0.47932444       0.62822676      -0.81912949
P        4.73150984       6.70575013       2.15663982      30.97376200      -0.06967617       1.03937918      -0.82039122
S        0.90789296       1.20807003       5.73627010      32.06000000       0.85771150      -1.48623040       0.59124346
S        1.18801970       7.04825988       6.21606003      32.06000000       0.39549649      -0.79235988      -0.19530210
S        0.79871092       0.93963593       1.94203976      32.06000000       0.12630288       0.51659483      -0.55450221
S        0.72982722       7.53705984       1.77853995      32.06000000       0.59777814      -0.18742374       0.08936696
S        5.11761973       4.27721975       5.99982970      32.06000000      -0.49305762      -0.39097430      -0.26376269
S        3.69257982      10.55049992       5.89922978      32.06000000       0.64980996      -0.43105566       0.22317786
S        4.74969968       4.70875016       1.79469022      32.06000000       0.22239920      -0.46072924      -0.24265010
S        3.47240989      10.53709969       1.92880000      32.06000000      -0.62289278      -0.56682836      -0.94802473
S        3.83448973       1.74192016       3.73729975      32.06000000       0.03811712       0.68030362       0.40512099
S        4.01183977       7.13892998       4.00805017      32.06000000      -0.25335737       0.47508624       0.11563204
S        1.81112014       4.51854991       3.87287002      32.06000000      -0.22954996      -0.13224225      -0.51492340
S        0.64363974       9.68631989       4.09347019      32.06000000      -0.65625965       1.39721404       0.18062421
S        3.87212001       1.93835016       0.51275792      32.06000000      -0.25617504      -0.27222801       0.26149264
S        3.58115995       7.48622004       0.65456899      32.06000000      -0.70989790       0.15181964       0.12427355
S        2.32346003       3.97636999       7.02483972      32.06000000      -0.98901150      -0.13476798       0.46057194
S        0.92218971       9.69632994       7.22880996      32.06000000       0.17398170       0.50113463       0.61860628
16
Lattice="6.0292863588177 0.0 0.0 0.0 6.4555569043862 0.0 0.0 0.0 7.6143254496873" Properties=species:S:1:pos:R:3:masses:R:1:forces:R:3 energy=-71.04302788871883 mtt::r2scan_energy=-112.58644215 pbc="T T T"
Li       3.12361530       5.01444954       5.56794707       6.94000000      -0.14694656       0.16733399       0.46389373
Li       0.07447917       1.22411395       5.69677725       6.94000000       0.25259305      -0.06082855       0.00197165
Li       0.04172749       1.15194038       1.87704888       6.94000000      -0.18777284      -0.20623145      -0.10475621
Li       2.96955618       5.34253738       2.09996185       6.94000000       0.34895449       0.14718305       0.31474534
Li       2.46767597       2.30047662       7.42020474       6.94000000       0.28131777       0.05528338       0.14277906
Li       5.73197260       4.38252365       3.98308826       6.94000000       0.36365701      -0.66948272      -0.21964033
P        0.08085333       4.35066611       0.00219948      30.97376200      -0.09561307       1.29760916       0.17800837
P        3.08925138       2.08034316       3.78077194      30.97376200      -0.88590171      -0.37078750      -0.55137977
S        5.36656107       5.46267211       5.92530830      32.06000000       0.41870352      -0.51058291       1.48267225
S        2.60602096       0.90366281       5.36120948      32.06000000      -0.97313900       0.25956004       0.56691851
S        2.38035200       1.21352170       2.04606787      32.06000000       0.32061016      -0.27293288       0.00400051
S        5.48743078       5.10604827       1.81736377      32.06000000      -0.65834363       0.97408378      -0.64945967
S        2.11133067       4.69662837       0.15579374      32.06000000      -0.19676618      -0.66041987      -1.30514008
S        5.08717540       2.05647743       3.78393852      32.06000000       0.91470185       0.42550242      -0.23984629
S        5.39682929       2.47824470       7.56398935      32.06000000       0.10146857      -0.54231176      -0.33089587
S        2.20225111       3.91796352       3.82821639      32.06000000       0.14247658      -0.03297816       0.24612880
32
Lattice="6.4030971387987 0.0 0.0 0.0 8.3810138449736 0.0 0.0 0.0 13.586603756874" Properties=species:S:1:pos:R:3:masses:R:1:forces:R:3 energy=-136.07806607773637 mtt::r2scan_energy=-219.04574851 pbc="T T T"
Li       4.03440581       0.34267584       4.74101000       6.94000000      -0.04770562       0.30531454       0.34773795
Li       4.31051697       0.66031620      10.38589976       6.94000000      -1.27947285       0.28713484       0.77745575
Li       3.74345741       4.80257001       0.69899602       6.94000000      -0.85342701      -0.06858032       0.20596107
Li       5.20129728       4.28854026       5.00709646       6.94000000       0.06226015      -0.06535932       0.16567954
Li       4.59749418       8.19817980      13.42462205       6.94000000       0.15671675      -0.39612024      -0.23806624
Li       1.89028712       0.15996473       1.85236030       6.94000000      -0.40053331      -0.11257572       0.19541050
Li       0.01272744       1.82188604       7.60099368       6.94000000      -0.11097586       0.01413138      -0.07627855
Li       0.33315507       5.37172402      11.51589977       6.94000000       0.35042508      -0.05450681      -0.65600943
Li       6.02120938       3.11788635       0.31698020       6.94000000       0.41571501       0.56659689      -0.03545666
Li       2.16641300       7.73939790       8.15259616       6.94000000      -0.24575495       1.03950798      -0.35008282
Li       3.57100023       3.56679980      10.64398363       6.94000000      -0.22599123       0.14178210      -0.32105809
Li       2.56829443       4.49918615       6.96413971       6.94000000       0.78040554       0.06282711       0.82421362
P        1.30193022       1.54545985      11.52650010      30.97376200       0.82996690      -0.23974795       0.35322117
P        6.35317987       6.15626991       1.73039026      30.97376200       2.60309129      -1.66150903      -2.89891517
P        4.53718981       5.90505016       8.54803991      30.97376200       0.62233065       1.54010482      -0.34579635
P        2.13934967       2.62623990       4.78274026      30.97376200       1.84975982      -2.05182436       3.76750598
S        5.60010970       1.78468020      11.91789965      32.06000000       0.66534839      -0.35296083       0.26724145
S        5.32408691       4.68798019       2.41954024      32.06000000      -1.12967026      -2.91246368       2.68583803
S        2.53315999       5.84140977       9.12713026      32.06000000       0.62702809      -1.16007682       0.03382154
S        3.86308967       2.60137027       6.28016984      32.06000000       0.21707994       0.08735507      -1.00143467
S        2.07528988       1.53564006       9.63543372      32.06000000      -0.49647766       1.34495815      -1.11819612
S        5.56239994       5.74920966      13.38520010      32.06000000       0.07014158       0.74477259      -1.35702772
S        4.77301972       6.23515991       6.50392991      32.06000000      -0.47929149      -0.64016914       0.30998897
S        2.85385015       2.08102002       3.07646983      32.06000000       0.87455302      -0.42670780      -2.51517593
S        1.90605987       3.50121992      12.39970006      32.06000000      -0.09091998      -1.50905485       0.01831733
S        2.00629267       6.17518978       1.76549972      32.06000000      -0.34708964      -0.22893421       0.22561911
S        5.37459966       7.82630009       9.11685008      32.06000000       0.77501142      -1.85926900      -0.58582726
S        1.42947991       4.35715009       5.16244969      32.06000000      -2.11327008       2.15090550      -0.99229227
S        5.76058988       7.88583993       2.15299979      32.06000000      -1.40041875       4.26560093       1.19564450
S        2.19512001       8.02578474      11.91870004      32.06000000      -0.43162769       1.28843526       1.48459762
S        1.30611016       1.00504998       5.68161024      32.06000000      -1.21928197      -0.79945587      -0.12698053
S        5.49704993       4.25621999       9.40659023      32.06000000      -0.02792527       0.69988881      -0.23965631
32
Lattice="5.8287297843834 0.0 0.0 -0.53047852640652 11.645399926843 0.0 -2.9143648921917e-05 0.0 7.8990421452283" Properties=species:S:1:pos:R:3:masses:R:1:forces:R:3 energy=-140.2570384559367 mtt::r2scan_energy=-222.36395206 pbc="T T T"
Li       3.47117063       2.22260017       5.98933985       6.94000000       0.18007834      -0.02157229      -0.21323175
Li       1.89044009       5.97001003       0.63769218       6.94000000      -0.45972113      -0.07149754       0.14160713
Li       4.39764956       4.35752983       3.48499987       6.94000000      -0.13296008      -0.12693563       0.28401624
Li       3.33418965       9.03934978       3.85086982       6.94000000       0.05623658       0.23226451       0.39924083
Li       4.49026108       6.69077968       6.02882950       6.94000000       0.22429017      -0.15214696       0.13783219
Li       2.29726095       0.24660015       7.51690479       6.94000000       0.34845621      -0.25901143       0.90222039
Li       2.54060984       0.12416710       4.21608987       6.94000000      -0.07980578      -0.21765643      -0.28077145
Li       0.93633823       6.43011947       3.93968975       6.94000000       0.07776195       0.16012699      -0.89037771
Li       0.18701013       2.97200986       7.63016983       6.94000000      -0.26858024      -0.30565138       0.52586382
Li       3.08231916       9.68598964       0.11690975       6.94000000       0.09969868      -0.42344197      -0.26860963
Li       0.75960007       2.27620000       4.10430999       6.94000000      -0.54266525       0.09736397      -0.54439905
Li       0.13869987      10.20579984       2.06893969       6.94000000      -0.15784007      -0.08280296      -0.04092245
P        1.29982015       4.79249995       5.88522999      30.97376200       0.10235667       0.94969466      -1.10180767
P       -0.26218384      10.72419949       6.03288979      30.97376200      -0.49648841       0.17163599      -0.04699302
P        4.70476999       0.94956070       1.90894981      30.97376200       0.21177754      -0.16599282       1.65624305
P        4.86775002       6.79980957       1.82882983      30.97376200       0.51254209      -0.77309526      -0.57004767
S        0.91534373       1.08556012       6.04146968      32.06000000      -0.23504981      -0.08848821      -0.14068247
S        1.32729969       6.89286000       6.12912969      32.06000000      -0.25312237      -1.02517009       0.03259389
S        0.96352401       0.93774004       1.94315979      32.06000000      -0.96636009       0.38247038      -0.05417349
S        0.75777509       7.79640987       1.86910985      32.06000000       0.99558756       0.96350482       0.61751423
S        5.18345967       4.17126985       5.82167003      32.06000000      -0.33862705       0.75035232       0.00328091
S        3.43203012      10.64059977       5.84659950      32.06000000       1.04676745      -0.19696954       0.57272877
S       -0.18299006       4.91408959       1.67738020      32.06000000      -0.24234438      -0.26200525      -0.47536495
S        3.25026993      10.72729980       2.16520991      32.06000000       0.36570102       0.01963254      -0.45736967
S        3.92390963       1.98465976       3.58697000      32.06000000       0.77383927      -0.33090990      -0.73332614
S        3.80711005       6.74468961       3.52954011      32.06000000      -0.39197565       0.74188419       0.97802990
S        2.11605973       4.17009012       4.08653994      32.06000000      -0.57330970      -0.00052674       0.60145002
S        0.50005314       9.77304988       4.45780962      32.06000000       0.07460662      -0.39381328      -1.11318566
S        3.85430994       2.00311002       0.43902809      32.06000000       0.23307974      -0.36089202      -0.30866709
S        3.65752969       7.37836987       0.33146704      32.06000000       0.09063626       0.09841561      -0.56842324
S        2.30334964       3.89860012       7.34272952      32.06000000       0.40605071      -0.06925880       0.79460159
S        0.51109625       9.63685986       7.58764983      32.06000000      -0.66061686       0.76049255       0.16113016
32
Lattice="14.280949772723 0.0 0.0 0.0 7.6452636179777 0.0 0.0 0.0 9.0176343292368" Properties=species:S:1:pos:R:3:masses:R:1:forces:R:3 energy=-125.67348955003763 mtt::r2scan_energy=-207.95223756 pbc="T T T"
Li       8.56863984       7.33407030       2.80886574       6.94000000      -2.11957056       3.50769543      -0.58570594
Li      12.27140021       5.15883601       2.48945945       6.94000000      -0.50074885      -0.62103964       0.52721712
Li      11.21203936       6.34287385       7.05140032       6.94000000      -0.29936970       0.31926258      -0.31866661
Li      10.26969946       7.05927055       1.18166576       6.94000000      -0.61511643       0.02210093       0.17483567
Li      11.53506016       2.44147974       0.47721365       6.94000000       0.60505871       0.51234209      -0.44786658
Li       7.67350991       3.45659964       4.05785048       6.94000000       0.32465339       0.19574114      -0.08923894
Li       0.78833556       3.26468938       3.84746495       6.94000000       0.47333638       0.31720947       0.03342456
Li       4.79762938       4.57787984       7.65176431       6.94000000      -0.41501699       1.82263469       1.16650254
Li       5.44511051       0.96816556       8.71695750       6.94000000       0.46214547       0.11633869      -0.29081567
Li      12.73669926       4.16719971       6.35730475       6.94000000       1.02855854      -0.31930037       1.07300006
Li       3.70805004       6.29575956       2.78331998       6.94000000       0.63984193      -0.12375619       0.85409824
Li       0.93725017       0.11933733       0.50015599       6.94000000       0.09998088      -0.10939808      -0.26360736
P       13.81350001       5.21953005       8.56242477      30.97376200       2.75610677      -0.32340903       1.08691185
P        6.49818060       5.95431919       0.76674848      30.97376200       0.14806006       2.07432261       2.75656274
P        4.74346031       2.16753971       4.77980961      30.97376200       0.27391172       0.07376699       1.37695354
P       10.70519988       1.83244008       4.19137022      30.97376200       0.55200710       0.26050773      -0.07554877
S        6.42300997       5.55849982       2.92386595      32.06000000       0.89530232       0.51831368      -0.96234834
S       11.86460022       4.83069978       8.76931003      32.06000000      -1.87022162       0.08195394      -0.59237490
S        3.57406045       3.62763972       4.11806039      32.06000000      -1.56156171       0.81694463      -1.20653732
S        9.37404971       1.89341973       5.68829937      32.06000000      -0.41649549      -0.39075651      -0.53494930
S        3.96303925       0.33748741       4.98477980      32.06000000      -1.34060597      -1.00915010       0.15644734
S        9.32129016       5.66694364       3.27734944      32.06000000       1.34014975      -3.16725232       0.60177639
S        4.40415922       6.44261057       0.60147647      32.06000000       0.56374896       0.28740836      -0.96981161
S        0.03305040       4.42566062       1.63627981      32.06000000      -0.15027518       1.54619902      -0.08130274
S       14.02173768       7.18632959       7.60352469      32.06000000      -0.57488624      -1.33498403       1.19148726
S        7.17345960       4.58017050       8.73306498      32.06000000       0.12715569      -3.22827084      -1.99345544
S        5.36052016       2.99861958       6.59563952      32.06000000       0.81772532      -2.44105656      -0.68168450
S       11.63579941       3.75173975       4.68413010      32.06000000       0.17263316       0.28443560      -1.91600157
S        7.92420056       7.45331052       0.27287753      32.06000000      -1.28661799       0.57993855       0.71994116
S        0.77534990       3.87659952       7.73273444      32.06000000      -0.89908259       0.26847026      -1.33743913
S        6.32949974       1.48828061       3.82544944      32.06000000       1.02516370       0.33447789      -1.14817953
S        9.94886936       1.99688950       1.77640020      32.06000000      -0.25597052      -0.87169061       1.77637578
16
Lattice="6.2521228812554 0.0 0.0 0.0 6.6940854477314 0.0 0.0 0.0 7.8956809442798" Properties=species:S:1:pos:R:3:masses:R:1:forces:R:3 energy=-69.53742386381873 mtt::r2scan_energy=-112.35399022 pbc="T T T"
Li       3.41397483       4.89268567       6.25919466       6.94000000      -0.14317987       0.10565089       0.29623053
Li       0.43787555       5.94797524       4.09597202       6.94000000      -0.43451490      -0.47833316       0.12829156
Li       6.07507401       1.73286026       0.97252522       6.94000000      -0.11311234       0.24421446       0.33022082
Li       3.34247805       4.98689578       3.06908084       6.94000000      -0.19738945       0.02730067      -0.29006672
Li       3.02170976       1.64366935       7.11805565       6.94000000       0.19169782      -0.06003616      -0.25360739