9
Properties=species:S:1:pos:R:3:forces:R:3 energy=-97078.10995362196 pbc="F F F"
C       -0.02326528      -0.53193351      -0.16332991      58.32043527       8.81859775      90.62139778
C       -1.11409345       0.13737969       0.64212662      45.53816308      -9.62736446      54.70265653
O        0.99584567       0.35772873      -0.50705431      14.45118724      17.12354881     -30.84466398
H        0.45969068      -1.44094814       0.37276885     -18.67264258      17.22785956      -1.68549402
H       -0.35661717      -0.93481490      -1.02960453     -36.30746525     -33.12974825     -83.65202273
H       -0.55380774       0.66519480       1.54009471     -25.14952243      -5.33031067     -35.74886408
H       -1.73936950       0.78358570       0.03620900     -10.84707983      12.92935787      -1.63816079
H       -1.63065013      -0.65919628       1.18884363     -21.92152781      -3.74062862      -1.72473165
H        1.56520716       0.60785716       0.23496390      -5.41154771      -4.27131199       9.96988294
9
Properties=species:S:1:pos:R:3:forces:R:3 energy=-97078.41446009486 pbc="F F F"
C        0.38937327      -0.37566189      -0.17767699     -33.62598116       3.17229423     -56.61169797
C        0.27978381       1.16130340      -0.70672962     -16.48549645     -49.80601366      -9.19204126
O       -0.60205371      -0.76237640       0.78812323      19.84641212      37.54215516      11.90134115
H        0.04754085      -0.93593904      -1.15466630      25.00519377       4.10532906      37.69452487
H        1.41723693      -0.66029275       0.14394832       0.50748160       1.16156389      -3.38049002
H       -0.22100570       1.66282678       0.11428019      -4.10041384      22.30687103      10.16670789
H        1.23100315       1.63763810      -1.01673930       0.15414844      -2.16697531       5.50998983
H       -0.43247140       1.14937443      -1.60458985      15.46759359       5.73461517      21.47291155
H       -0.46040795      -0.11540046       1.54626433      -6.76893927     -22.04984194     -17.56124722
9
Properties=species:S:1:pos:R:3:forces:R:3 energy=-97081.00856135656 pbc="F F F"
C        0.30473642       0.49324607      -0.07920424     -35.81783974      15.52561463     -34.11825105
C       -0.97921447       0.04429990      -0.79915056       0.16622484      44.19410370     -36.14698927
O        0.60451792      -0.51586147       0.79480351     -15.03627016     -31.29477912      23.01134834
H        1.09027643       0.50115571      -0.81956939      22.13906193      16.67661049     -23.03493313
H        0.11703993       1.56442500       0.29135696       9.54459415     -21.63425080       5.08127164
H       -1.18764572       0.65211934      -1.76276006       6.55505154      -4.00725573      28.45906952
H       -0.87856664      -0.94773415      -1.24100836      -1.69325403     -19.34231011      10.77127148
H       -1.83419153       0.20579946      -0.12529481      -7.67040518     -12.25926700       0.26553498
H        1.13350311      -0.19425211       1.50762058      21.81283545      12.14153513      25.71167749
9
Properties=species:S:1:pos:R:3:forces:R:3 energy=-97080.64200979717 pbc="F F F"
C        0.18747871       0.51090461      -0.22778601     -31.55183429     -47.70560679     -22.05855773
C       -1.28104060      -0.06752643      -0.23815674       0.73321924      27.55408410     -13.26043674
O        1.01717714      -0.34136838       0.47787512      27.79018463       5.32427721      41.62187405
H        0.50548859       0.36306786      -1.29610712      -3.53433251      29.56689674      -1.85302682
H        0.26575506       1.53556448       0.17978201      -0.31672687       2.39353116      -5.39144686
H       -1.73190023       0.49017146      -1.12052224      -9.92992315     -12.30224234      18.57534003
H       -1.29007555      -1.16524516      -0.48563865       4.41829451      11.44484155       0.62606964
H       -1.87476729       0.06500793       0.71409348       9.21680357       2.55759662     -13.48504547
H        1.00946361      -1.15473431      -0.02487990       3.17431606     -18.83337943      -4.77477129
9
Properties=species:S:1:pos:R:3:forces:R:3 energy=-97080.45324115346 pbc="F F F"
C        0.09867054      -0.20035607      -0.56852328      22.65090024     -22.01483532      -8.85096948
C       -0.36700657       1.18541225      -0.21569030     -38.33842688      22.28730972      14.68271880
O        0.22603330      -0.85165692       0.71230226      -5.43444710     -28.92576481     -20.82580663
H       -0.45100414      -0.83389145      -1.36996149      -5.54631746      20.74875316      23.74930138
H        1.13417585      -0.21208409      -0.97807932       2.82386444      12.53296517      -9.72371954
H       -0.72565774       1.93943443      -1.01646021      19.66339369     -25.37227061      16.34590515
H       -1.27534804       1.03109057       0.47267697      16.25125766       4.55998353     -16.18982027
H        0.40206836       1.61414279       0.48871948      -7.70657509       2.01910343     -15.15996197
H        0.52438262      -1.75954522       0.44122721      -4.36364951      14.16475691      15.97235255
9
Properties=species:S:1:pos:R:3:forces:R:3 energy=-97079.22689371121 pbc="F F F"
C        0.07420145       0.11148474      -0.58582173      57.69139278      10.59077884      46.22251582
C       -1.23030746      -0.44650729      -0.10027936     -18.49097123      38.20236696     -32.08018397
O        1.07330406       0.34051377       0.57678979     -47.42304342     -25.04156884     -19.51521112
H        0.56516519      -0.55643190      -1.31581325       2.11647475      -4.87305926      -3.84007157
H        0.03581316       1.12071470      -1.02065443      -9.62332793       3.39676541      -7.60715111
H       -1.70164019       0.32374458       0.57970336      -7.13449826      -8.92886013     -18.11168044
H       -1.82159324      -0.75549049      -1.05463802       5.16175688       9.61622723      37.88966476
H       -1.05637798      -1.27169422       0.55299258       4.66560935     -36.85370541      12.28320280
H        0.71695538      -0.27528475       1.27845444      13.03660471      13.89105400     -15.24108399
9
Properties=species:S:1:pos:R:3:forces:R:3 energy=-97075.5438525741 pbc="F F F"
C        0.09803270       0.53230175       0.00062634      16.52524754     -31.34562594     -14.82885346
C       -0.99851803      -0.01523239      -0.91462966      15.37595690     -35.27026552      39.90089790
O        0.78459790      -0.50517411       0.85696449      27.28258918      67.84665276     -39.05316392
H        0.86063941       0.98587593      -0.64087701      14.32488307       1.16587554     -12.31807187
H       -0.23829379       1.42579450       0.53148826     -14.69048593       3.31330021      22.83322853
H       -1.57424216       0.73408431      -1.36391385     -18.09443386      48.12451112     -29.15150719
H       -0.72022512      -0.76048344      -1.68334510       9.02918889       0.60568182       3.35703448
H       -1.77021169      -0.46106939      -0.28119847      -6.51347073     -16.59135114       9.60536037
H        1.71739576      -0.06833195       0.72627799     -43.23947626     -37.84877765      19.65507515
9
Properties=species:S:1:pos:R:3:forces:R:3 energy=-97073.90546650258 pbc="F F F"
C        0.13287291      -0.08109460      -0.52558929      40.66928385     -47.84747842      72.55161832
C       -0.41850096       1.22332823      -0.17370800     -19.36472569      55.04791544     -41.14240510
O        0.29125150      -1.08328267       0.60474037     -38.38751869      45.93911289      18.89826993
H       -0.40030786      -0.66523632      -1.20190861     -29.99817511     -18.80579486     -53.90509345
H        1.18704786       0.03163899      -0.75923333      12.22195870       4.55771031     -24.75325186
H       -0.51213009       1.84580425      -1.15235679      -4.14374018     -19.93594517      19.80356129
H       -1.43934098       1.28858982       0.28522706      11.64761695      -5.18269966       3.08265446
H        0.35127366       1.83457921       0.29763027       1.09149847       5.72032128      25.61118272
H       -0.40710483      -0.75248878       1.26426338      26.26380052     -19.49314062     -20.14653750
9
Properties=species:S:1:pos:R:3:forces:R:3 energy=-97075.87924513611 pbc="F F F"
C       -0.09103593      -0.38812327      -0.33360010     -47.94845938     -15.28078646     -64.04635125
C       -0.81565949       1.01815161      -0.35335052      28.07722684     -13.43012061      39.26966994
O        0.85903323      -0.53605933       0.61214215      48.88217250      53.93800947      -4.26029334
H       -0.94785710      -1.14534600      -0.30074345      13.35993661       5.94091008       6.99648529
H        0.38126826      -0.66768668      -1.37360055     -12.60792092      19.43392072      23.33142160
H       -0.02447559       1.85315246      -0.17182879     -31.67926736     -22.40828956       1.21227316
H       -1.29457580       1.17988337      -1.29344817      -7.63678003       5.04207433     -35.83632550
H       -1.72027109       0.97282140       0.35161954      29.72273260      11.79302351      -2.07247130
H        0.77343469      -1.19273120       1.25700809     -20.16964204     -45.02874266      35.40559023
9
Properties=species:S:1:pos:R:3:forces:R:3 energy=-97080.65175524708 pbc="F F F"
C        0.00686863      -0.39383199       0.24890978     -20.40064591     -55.69785684      18.03859711
C       -1.30406611       0.15754366      -0.25479625     -31.17643536       5.55649773     -27.46874174
O        1.22153579       0.18570307      -0.03813857      18.44513332      44.11654033      14.90202810
H       -0.20111203      -0.42252280       1.33676993      10.68793790      -9.65541862      12.46943718
H        0.09969531      -1.50535768      -0.07113373      -4.69245515      28.12585855       4.82190886
H       -1.86684943       0.89587919       0.34863959       9.89226858       2.16738679      15.34868183
H       -1.26137592       0.68615257      -1.22076527       7.25238784      -5.50699682     -12.85878136
H       -2.03638649      -0.68677695      -0.37340373       7.31293349       6.36688190      -1.29777678
H        1.33267247       0.89902484       0.65542442       2.67887528     -15.47289184     -23.95535320
9
Properties=species:S:1:pos:R:3:forces:R:3 energy=-97084.9453664245 pbc="F F F"
C        0.19490299      -0.40659654      -0.36675146     -12.67245686     -41.73897625       8.83140699
C       -1.22377348       0.17631461      -0.33524798     -32.09313907      -6.84417132     -17.58953853
O        0.95256619       0.15409413       0.66123727      10.75777565     -15.79087450      22.67637879
H        0.22477922      -1.58880472      -0.20782639      -6.44989056      45.71411877      -6.91539410
H        0.70375437      -0.21399479      -1.32478404      -2.65413313      -2.04293368     -15.27545027
H       -1.20098836       1.29957857      -0.36312698       2.98702985      -8.81381770      -1.81931630
H       -1.91643323      -0.15360013      -1.19645654      21.40358489       6.13655632      15.51833250
H       -1.80704467      -0.09291196       0.58653996      12.51923455       0.51048410      -3.91596767
H        1.13462178       1.04629970       0.37467902       6.20199467      22.86961426      -1.51045260
9
Properties=species:S:1:pos:R:3:forces:R:3 energy=-97073.52715000525 pbc="F F F"
C        0.43806733      -0.29356664      -0.12097884     -25.45455710     -53.77503023     -62.50188930
C        0.24836177       1.04746340      -0.70850704      20.97718380      34.36411444      81.08667677
O       -0.63343999      -0.72853865       0.70863351      12.30192691      38.69269448      62.89927098
H        0.47970505      -0.97028501      -1.05758370     -12.63171442      -1.05970186      25.14320437
H        1.40836283      -0.47998686       0.25408928      42.41295780      -0.49442927      30.69834908
H        0.38401976       1.70719803       0.21051796      -8.05844258       7.35769824     -18.53473989
H        0.93223222       1.42840374      -1.43702258      20.01193614       0.05817875     -24.56345883
H       -0.75975702       1.09893563      -0.98756361     -48.23102038      10.57071712     -21.74944264
H       -0.57027596      -0.20490429       1.65338927      -1.32827017     -35.71424167     -72.47797172
9
Properties=species:S:1:pos:R:3:forces:R:3 energy=-97082.37923886688 pbc="F F F"
C       -0.52789961       0.08291626       0.15443941     -17.06643611     -27.44438023     -25.06909530
C        0.21182515       1.03076124      -0.78404587      16.36723926      40.07808209       7.56162625
O        0.28220175      -1.02858407       0.52448266       8.02056153      -4.10224593      23.39804695
H       -0.79185344       0.55668592       1.09034254     -18.76050362      20.18836615      11.39075862
H       -1.48294567      -0.34564672      -0.37257064      22.44141310      18.39229432      14.99190148
H       -0.47378502       1.66636904      -1.44578197      12.68099003     -18.08721933      12.72858651
H        0.88308936       1.80977647      -0.21350413     -21.81325997     -28.06311438     -15.29302413
H        0.92260736       0.43522008      -1.39862343      -6.08206785       2.00747526      -3.91298652
H        0.22877734      -1.06749127       1.51727755       4.21206363      -2.96925795     -25.79581387
9
Properties=species:S:1:pos:R:3:forces:R:3 energy=-97079.80649694776 pbc="F F F"
C        0.11896867       0.53932581       0.16480941     -28.95941722       7.26218035      59.02691662
C       -1.29730495       0.03828646      -0.27907960      54.85509382     -36.66393017      -6.49366040
O        1.06405022      -0.51119565       0.17413035       2.86539900       6.60791545     -27.50427250
H        0.36851951       1.40563251      -0.44117194      13.74720205      12.68051333     -18.85690494
H        0.12516937       0.99875498       1.20915971      -2.55506964     -14.93035737     -11.57587715
H       -1.29500821      -1.06636992      -0.03365352      -9.05830317      16.41062252       4.19923423
H       -2.23044363       0.52385372      -0.00202572      -5.52189784      12.77987920       3.94773938
H       -1.06884832       0.05120295      -1.35010726     -25.35432439      -1.70377226     -19.70862209
H        1.25072081      -0.68305668      -0.78458254      -0.01868261      -2.44304986      16.96544685
9
Properties=species:S:1:pos:R:3:forces:R:3 energy=-97075.38411223126 pbc="F F F"
C       -0.14202646       0.27551563      -0.43589042      32.47182272      34.82190896     -10.04835465
C       -1.16826335       0.05055097       0.68874157      37.07281312      79.83854438     -25.86196490
O        1.19228995      -0.26172271      -0.24586451      -9.11325175      -1.04403598      12.56957147
H       -0.55452144      -0.10839916      -1.33427800     -15.93119033     -20.41610071     -41.80303430
H        0.09721862       1.41091764      -0.76709600     -16.54466536     -43.92012331      28.77367258
H       -1.98656919       0.80537490       0.66800309       3.43651295      -3.32795341      -1.31891523
H       -1.56959987      -0.89928041       0.72716840     -22.78204731     -64.89937518       0.29143212
H       -0.52526062       0.25567306       1.51253322       6.65585463       2.55377116      44.84054575
H        1.22561569      -1.19680377       0.08337038     -15.26584867      16.39336408      -7.44295403
9
Properties=species:S:1:pos:R:3:forces:R:3 energy=-97074.5186345162 pbc="F F F"
C       -0.19885955       0.16584072       0.45977790      61.86606747       4.99420629      13.75379284
C       -1.15282647      -0.46077477      -0.47876871      18.31894536     -28.08497618      -5.78737116
O        1.22345125       0.34801202      -0.01032410     -28.98034815     -51.01443409      28.20611966
H       -0.55584299       1.17298411       0.73058162       2.49211914       5.19714296       5.09318677
H       -0.17050796      -0.51246303       1.37283784      -1.72949628      20.58374735      -5.05599824
H       -0.95668368      -0.43610861      -1.53937728      -1.84708111      30.19930222     -23.97994357
H       -1.13481672      -1.53209803      -0.38704258       0.64867613     -32.66835596      12.91975509
H       -2.10012467      -0.16693109      -0.10784884     -45.22810290      12.50819218      -5.58461355
H        1.60350521      -0.53654586       0.32102360      -5.54078086      38.28517522     -19.56492904
9
Properties=species:S:1:pos:R:3:forces:R:3 energy=-97081.34652971318 pbc="F F F"
C        0.28734773       0.24344989       0.41944515     -29.40575908      -4.26773556      11.01821515
C       -1.27836606       0.07394773       0.42211368      13.98483821      12.79083026     -72.38759911
O        0.88152316      -0.25026153      -0.76975237       4.14678893      -7.17686053       0.88457032
H        0.55094854       1.31587588       0.58236774       1.86108328      -1.67322433       3.23527912
H        0.55025137      -0.35464755       1.30206878      17.91640062      -1.38115068      10.26405550
H       -1.82410712       0.18198871       1.37641945       4.29710123       3.75925194      -0.72618021
H       -1.70614098       0.70043156      -0.45163024       4.48030347      -0.34544034      32.42625636
H       -1.45667418      -0.89979175      -0.07454362      -1.12290020     -12.92616801      15.31490490
H        1.70105387      -0.75500174      -0.54420918     -16.15785528      11.22049725      -0.02950204
9
Properties=species:S:1:pos:R:3:forces:R:3 energy=-97077.29481193013 pbc="F F F"
C       -0.26846801      -0.54190342       0.20103867       7.16583832      -1.90854221     -34.67474856
C       -0.86402717       0.90332288       0.35323067      18.18308229     -43.92108857     -81.08634948
O        0.99054465      -0.28712027      -0.48220731       2.31605792     -14.38524729       8.26168164
H       -0.09557444      -0.93952842       1.24485794      -5.09393503      -6.99080046     -12.98358073
H       -0.87261484      -1.30462968      -0.47990887      10.31006773      27.84142632      32.13479696
H       -1.93903840       0.92341860       0.19275886     -15.69218691       4.26986529      15.43848287
H       -0.41703447       1.23380995       1.23779041       5.50052342      32.38686576      46.74189358
H       -0.40864663       1.45973555      -0.53536466      -9.78984448      -6.71810312      20.03583755
H        1.50355258      -1.12344679      -0.61060206     -12.89960325       9.42562310       6.13198617
9
Properties=species:S:1:pos:R:3:forces:R:3 energy=-97069.32531759671 pbc="F F F"
C       -0.29913874      -0.41831459       0.32893745     120.66297157      57.96980933      42.65194936
C       -0.98618277       0.88999998      -0.00009236     -17.12874033       7.48393007     -31.78784825
O        1.15377417      -0.38602577      -0.28806073     -63.88871650      25.92628857       7.28346940
H        0.03450632      -0.69901179       1.38786605     -27.82842024      19.24735786      -9.02440173
H       -0.82065436      -1.22195485      -0.02324051     -43.17237302     -63.80068471     -37.10998150
H       -2.06505469       0.94965952       0.38030687      17.14249112     -12.80295528     -17.03644195
H       -0.60012503       1.85114629       0.41415839      15.93572610     -11.33152212      -1.59461862
H       -0.90304818       0.94198792      -1.19226147     -12.21899770       4.03056186      49.40506860
H        1.35510957      -1.31644291      -0.31288266      10.49605902     -26.72278678      -2.78719411
9
Properties=species:S:1:pos:R:3:forces:R:3 energy=-97079.06818250587 pbc="F F F"
C        0.21425419       0.18588543       0.52804604      -1.91509862     -10.74306435     -39.35113228
C       -1.29209639       0.04577908       0.25554561       0.44831862      52.83601886      -1.74438426
O        0.95393866      -0.22789475      -0.73115260     -22.54391903      35.05956765      39.10311781
H        0.49911878       1.14874784       1.09608711      -3.13765877     -12.17813905     -29.78492536
H        0.44616024      -0.58319564       1.21820170      12.65029624     -31.18277239      33.85987369
H       -1.69764579       1.02184772      -0.16316264       4.34013942     -15.16656699       4.24196767
H       -1.53977797      -0.71184073      -0.48654575       4.09307953     -14.86183114      -5.57297946
H       -1.85994246      -0.13297878       1.18747145       0.96286890      -3.02917156       2.24340029
H        1.85254174       0.11284174      -0.58354517       5.10197371      -0.73404102      -2.99493809
9
Properties=species:S:1:pos:R:3:forces:R:3 energy=-97081.51236488423 pbc="F F F"
C        0.48851712       0.27886317       0.11379456      -4.65129886     -24.16331894     -37.00988871
C       -0.68644141       0.92747232      -0.56229170     -45.22700720     -17.80623429      64.79582099
O        0.21929053      -1.11177955       0.35116082       0.90436642       2.41955045      28.64832537
H        1.38741044       0.43680136      -0.52559351       3.62514743     -10.84772729       0.44503152
H        0.71160745       0.71534895       1.05035804       9.06857120      29.01178545      36.56996452
H       -0.99896695       0.49287876      -1.47548649      -3.67923747     -26.09382967     -36.07965124
H       -1.60178981       0.80136805       0.14640407      22.51004012       5.55801558     -20.10112411
H       -0.60910310       1.96241397      -0.75465373      11.30990934      46.80873002      -3.54833350
H       -0.01254306      -1.13742596       1.32919810       6.13950783      -4.88697131     -33.72014365
9
Properties=species:S:1:pos:R:3:forces:R:3 energy=-97075.10657088274 pbc="F F F"
C       -0.28301816      -0.51097567      -0.14405316     -52.94352184      29.27996718     -31.67774477
C       -0.86664063       0.73712642       0.67933058      32.57653546     -79.46796108       8.47942684
O        1.05834870      -0.26183569      -0.46783739      -1.14036141      -2.44610454       2.69790890
H       -0.50142696      -1.54582674       0.18566660      19.32320535       1.51383101      31.14639733
H       -0.98126179      -0.64732232      -1.03822361      13.29517537      16.47862343      -8.55226234
H       -1.96590862       0.65072750       0.81667811       7.64713462       6.42859203       9.62084838
H       -0.17114092       0.67178227       1.55227041     -23.01239660       8.82079270      13.42811658
H       -0.54129981       1.62958636       0.18713103      -2.57021257      27.77461835     -22.64353392
H        1.05992664       0.70093443      -0.65578051       6.82444163      -8.38236027      -2.49915817
9
Properties=species:S:1:pos:R:3:forces:R:3 energy=-97080.74441860602 pbc="F F F"
C       -0.26086832       0.07696967       0.44692578      22.40722706      24.77078660      -2.71232255
C       -0.31962761       1.06106912      -0.77781592       3.06992230      35.46555009       9.68586457
O        0.54608432      -1.04864254       0.35896202      29.70507573     -12.54409647      -0.18384495
H        0.14341273       0.58142110       1.37229812     -10.19958122       3.47662572     -12.22944360
H       -1.25274438      -0.26639846       0.67044905     -37.46513253       1.01131088       8.17109084
H       -0.16592221       2.14941295      -0.44869432       1.10686315     -22.66832114      -0.37413010
H        0.42424835       0.95824800      -1.60956780      -0.88630162     -11.57976664      11.48945214
H       -1.31863935       1.14724042      -1.25305312      -1.74359213     -11.73893466      -0.30595606
H        0.41769933      -1.48690628      -0.48645186      -5.99448192      -6.19315319     -13.54071029
9
Properties=species:S:1:pos:R:3:forces:R:3 energy=-97079.99237673174 pbc="F F F"
C       -0.34646779      -0.01100553      -0.48768962      55.64443560      14.30293471     -13.91775157
C        0.18902849       1.28562767       0.25648686      20.23892601     -30.18435850     -52.45899180
O        0.11771339      -1.12938690       0.25917456     -15.81346676      -3.03765374      16.24981570
H       -1.43126701      -0.06375792      -0.79490478       6.47085825       8.06245777      10.94004820
H        0.29915607      -0.09703643      -1.40603804     -18.16067857      14.26978034      -9.76756290
H        1.32848689       1.21210516       0.31955333     -25.89334409      -6.93114418      10.26343057
H        0.06471831       2.22687257      -0.30316388     -13.33384262       1.57674474      -5.35725371
H       -0.31429437       1.33267092       1.18623972      -9.62309788       7.72192910      41.78869417
H        0.05976356      -1.87369086      -0.36062673       0.47021125      -5.78069143       2.25957252
9
Properties=species:S:1:pos:R:3:forces:R:3 energy=-97078.38829063869 pbc="F F F"
C        0.50570804       0.10606060      -0.18091782     -42.27738644      56.90743819      31.56151533
C       -0.72779032       1.09301562      -0.24860082     -18.08952694     -15.90051788     -16.06820958
O        0.26872517      -1.14329143       0.37991491     -20.05434584     -13.68376181      27.87591949
H        0.68477518       0.05769152      -1.24095336      17.07080230     -18.93986735     -24.44007653
H        1.32953389       0.73923349       0.25195398       4.23190597     -15.01807967       6.34663638
H       -1.49061432       0.65119521      -0.94583287       4.79894070       1.79515163       4.91805524
H       -1.35055079       1.49535402       0.58528421      14.09725879     -15.64632291      15.86913869
H       -0.41493282       2.02023882      -0.72921117      10.07693531      11.54948196     -11.43073028
H       -0.37842144      -1.10562609       1.16641213      30.14541614       8.93647666     -34.63224755
9
Properties=species:S:1:pos:R:3:forces:R:3 energy=-97079.60181058872 pbc="F F F"
C        0.34193847      -0.05537246      -0.43703817     -14.53264722     -18.59389932     -21.13351770
C       -0.53800246       1.14097407      -0.24786070     -44.34306299       8.25348287      -6.74225711
O        0.26190097      -0.98500393       0.65204169     -23.24159091      -7.75698316     -18.17778048
H       -0.03188912      -0.46154481      -1.47539535      11.25377732      -2.01726066      30.73689775
H        1.37696914       0.23701326      -0.68924192      10.77690413      -5.44474358      15.38532607
H       -0.42519774       1.78063499      -1.17753857     -15.96370555      -8.80497148      11.05542503
H       -1.59115759       0.66001305      -0.09977100      21.09934234      25.86426420     -15.22602880
H       -0.46776812       1.84699428       0.60827962      16.67608042      -9.36480945       5.13169631
H       -0.68288002      -1.36540610       0.64488524      38.27490245      17.86491938      -1.02976225
9
Properties=species:S:1:pos:R:3:forces:R:3 energy=-97078.66263700451 pbc="F F F"
C        0.55181255       0.07320073       0.07827234     -31.56880813     -10.68965023      14.29449522
C       -0.28515489       1.15634789      -0.61383770     -25.32901660     -31.79275044      50.32481749
O       -0.17806502      -1.15884355       0.50385265      14.63506540      39.10592702     -15.27524868
H        1.37042809      -0.20906672      -0.58261948      14.27182469      -7.74098169      -6.90635103
H        0.97661272       0.60632253       0.94866611       4.95870992     -12.80480042      11.58572302
H       -0.03145813       2.12661131      -0.26938031      25.69292255      37.99864646       4.98603124
H       -0.25978216       1.10977091      -1.65969281      -6.06451651      -1.83744631     -51.57568675
H       -1.32253344       1.16041421      -0.20055471      -3.31044594     -11.85326678      -9.36364735
H       -1.08528077      -1.05221273       0.14758692       6.71426344      -0.38567762       1.92986565
9
Properties=species:S:1:pos:R:3:forces:R:3 energy=-97074.00274575844 pbc="F F F"
C        0.04340728       0.51560052      -0.04842056      99.28035318      28.99366610      17.18101607
C       -1.28406988       0.02262787      -0.27385579     -28.39491778       6.15577018      -7.23414873
O        1.13317027      -0.46549462       0.37415786     -51.19023680      31.88404561       3.94843664
H        0.46104370       0.87591513      -1.01021787      -4.47810021       9.76625968      -4.67463701
H        0.11599154       1.40637527       0.63771992      -1.80771659     -13.58125469      -1.34163675
H       -1.21742934      -0.85969675      -0.82316081       3.71591729     -59.55890677     -27.84448219
H       -1.89938488      -0.17538029       0.56849081     -19.80566850      -3.97647063      33.50158616
H       -1.81934411       0.63367853      -0.99406938     -11.54380662      21.81081718      -3.60325955
H        1.15475072      -0.90700183      -0.47763444      14.22417722     -21.49392667      -9.93287703
9
Properties=species:S:1:pos:R:3:forces:R:3 energy=-97069.95178060458 pbc="F F F"
C        0.20007963       0.18621069       0.57434330       8.33051855     -28.22152822     -92.46779941
C       -1.29386663       0.09716620       0.21904070      38.74666831      77.91095788      24.60408388
O        1.04859894      -0.29000119      -0.66362306     -37.69039110      16.79310673      39.97517417
H        0.49894538       1.20865894       0.73360026       5.77141356      21.98356996      11.97154768
H        0.51555983      -0.45287049       1.35638886      12.47241003     -23.00691100      31.44112722
H       -1.64306161       1.15818018       0.21453058      -4.16493673      -4.91168263     -16.77186512
H       -1.48321020      -0.39526489      -0.67442730      -4.73887768     -24.01016422     -59.70478410
H       -1.99468978      -0.31203065       0.86797457     -27.18899351     -35.10532137      53.78548917
H        0.49433318       0.01837817      -1.41816792       8.46218737      -1.43202833       7.16702651
9
Properties=species:S:1:pos:R:3:forces:R:3 energy=-97075.75388202633 pbc="F F F"
C        0.15006257       0.50828513       0.35858701      42.51720333     -86.63721812     -24.32339885