(written by ASE)

9 atoms
3 atom types

-10.0                      10  xlo xhi
-10.0                      10  ylo yhi
-10.0                      10  zlo zhi

Masses

     1      12.010999996910238 # C
     2      1.0079999997406976 # H
     3      15.998999995884349 # O

Atoms # atomic

     1   1   -0.023265279999999999             -0.53193351    -0.16332990999999999
     2   1     -1.1140934499999999              0.13737969     0.64212661999999998
     3   3     0.99584567000000002     0.35772872999999999    -0.50705431000000001
     4   2     0.45969068000000002     -1.4409481399999999     0.37276884999999998
     5   2    -0.35661716999999998              -0.9348149     -1.0296045300000001
     6   2    -0.55380773999999999     0.66519479999999997              1.54009471
     7   2              -1.7393695     0.78358570000000005    0.036208999999999998
     8   2             -1.63065013    -0.65919627999999997              1.18884363
     9   2      1.5652071599999999     0.60785716000000001               0.2349639
