10
Lattice="3.2117028504 0.0018726417 0.0005462941 -1.6028147824 4.7564937596 0.0005888561 0.00127699 0.0013044776 7.1146112425" Properties=species:S:1:pos:R:3:masses:R:1:forces:R:3 source_id=matbench-1000-random-relaxed-sample-353-mpid-wbm-3-51377 material_id=wbm-3-51377 mtt::matbench_energy=-75.025 energy=-69.3337401133831 pbc="T T T"
Tm       0.01350780       2.42691373       5.33056327     168.93422000      -0.04542908      -0.88969527       0.03818320
Tm       1.60036838       2.33589496       1.77476359     168.93422000       0.00868981       0.84005524       0.02790110
Rh      -0.00154303       0.00166826       0.00098747     102.90550000      -0.02071718       0.00963521      -0.00102690
Rh       0.00375054      -0.00321513       3.55783815     102.90550000      -0.04002565       0.07285658      -0.00927628
O        1.60671006       1.27077528       3.90645445      15.99900000       0.02721024      -0.17262309       0.09253092
O        0.00539120       3.48360092       3.21265129      15.99900000       0.00346328       0.16760353      -0.13940650
O        0.00069083       3.48632403       0.34585491      15.99900000       0.00165476       0.17330881       0.11829517
O        1.60273116       1.27660929       6.77242163      15.99900000       0.03506573      -0.17691092      -0.14418309
O        1.61492000       3.90047026       5.33890824      15.99900000       0.01099429       0.50840890       0.00028694
O       -0.00522820       0.86029409       1.77984815      15.99900000       0.01909353      -0.53263898       0.01669546
8
Lattice="3.1460152525 0.0004627086 -0.5670322522 0.0007572249 4.4627823717 0.0004683277 -0.0629490922 0.0009188153 8.6301359777" Properties=species:S:1:pos:R:3:masses:R:1:forces:R:3 source_id=matbench-1000-random-relaxed-sample-561-mpid-wbm-4-22595 material_id=wbm-4-22595 mtt::matbench_energy=-72.575 energy=-65.90053911603718 pbc="T T T"
Hf       1.89623092       1.11620075       1.51111225     178.49000000       0.02284811       0.00557184       0.03916176
Hf       1.18872561       3.34678965       6.55486924     178.49000000      -0.03107461       0.00904283      -0.08214803
Hf       2.44223819       1.11486387       4.52638725     178.49000000       0.05965319       0.02920439       0.25476367
Hf       0.63794696       3.34709078       3.53747793     178.49000000      -0.00954419       0.00617888      -0.25685269
Au       0.13771406       3.34870398       0.76092168     196.96656900       0.04690155      -0.01071739       0.27779946
Au       2.94785452       1.11819052       7.30133115     196.96656900      -0.04898260      -0.00691858      -0.26621613
N        2.48050489       3.34808548       4.72651723      14.00700000       0.06408269      -0.01850757       0.46830278
N        0.60407838       1.11673055       3.33567148      14.00700000      -0.10388414      -0.01385439      -0.43481056
12
Lattice="4.9561727043 -0.0809448549 -0.9198406048 -0.0993917347 5.0591586603 -0.076661874 -0.0722769131 -0.0812602652 5.052903754" Properties=species:S:1:pos:R:3:masses:R:1:forces:R:3 source_id=matbench-1000-random-relaxed-sample-30-mpid-wbm-1-37401 material_id=wbm-1-37401 mtt::matbench_energy=-108.553 energy=-112.12216442383942 pbc="T T T"
Nb       1.41751742       2.20771224       3.09038026      92.90637000      -0.57532212       0.18350914       0.57065300
Nb       3.44454155       4.53678768       3.30133252      92.90637000       0.09170019       1.19107149       0.19895222
Nb       3.36415025       2.68653635       0.96062062      92.90637000       0.56177498      -0.18133836      -0.57221057
Nb       1.34275759       0.36323990       0.75868760      92.90637000      -0.09006369      -1.18071380      -0.21481978
O        2.08291240       3.62832012       4.57787426      15.99900000      -0.78980765       0.24927565      -0.23630546
O        2.89311554       1.01279984       2.03925913      15.99900000      -0.20839665       0.17795787      -0.37128709
O        2.69881077       1.27046538      -0.52025618      15.99900000       0.83070079      -0.26776522       0.21036097
O        1.89844317       3.88273019       2.01963591      15.99900000       0.21267908      -0.16989309       0.36493903
O        0.17655156       1.69820373       1.62523752      15.99900000       0.17174429      -0.25405301      -0.02252775
O        4.51538301       4.18574906      -0.10546624      15.99900000      -0.13379789      -0.26511930       0.43601847
O        4.60095108       3.19655106       2.43182718      15.99900000      -0.17765577       0.27966737       0.02017390
O        0.27188997       0.71262581       4.15927530      15.99900000       0.10644418       0.23740126      -0.38394694
4
Lattice="2.4105835033 0.0003793573 -0.8251300775 0.0005999233 3.7900305392 0.0006004491 0.2322653712 0.0008395879 4.6504897016" Properties=species:S:1:pos:R:3:masses:R:1:forces:R:3 source_id=matbench-1000-random-relaxed-sample-454-mpid-wbm-5-20216 material_id=wbm-5-20216 mtt::matbench_energy=-26.506 energy=-28.37899149849909 pbc="T T T"
Co       1.46115759       0.94804920       0.34564117      58.93319400      -0.03012433      -0.01058292      -0.12251384
Co       1.18110920       2.84421236       3.48045387      58.93319400       0.04355474      -0.00768246       0.12136301
Si       2.21365202       0.94858469       2.56530600      28.08500000      -0.00387825       0.00812340       0.00542143
Si       0.43097878       2.84165270       1.26051909      28.08500000      -0.00955216       0.01014197      -0.00427060
12
Lattice="3.7031345917 -0.002766472 -0.0038258268 -1.8545122811 5.8717144138 -1.49002007 -0.0116291896 0.1333593436 11.2198722773" Properties=species:S:1:pos:R:3:masses:R:1:forces:R:3 source_id=matbench-1000-random-relaxed-sample-449-mpid-wbm-1-50324 material_id=wbm-1-50324 mtt::matbench_energy=-75.89 energy=-78.57985559660301 pbc="T T T"
Lu       1.87800553       4.58690972       5.33376100     174.96680000      -0.13673615       0.22301440      -0.10285621
Lu       0.01128938       1.41655219       4.40612138     174.96680000      -0.03190636      -0.29931317       0.00809460
Lu       1.81934142       2.41686404       8.50303851     174.96680000      -0.08200868       0.05999798       0.06275240
Lu      -0.01275637       3.58062675       1.20362361     174.96680000      -0.05628119      -0.04460992       0.00149895
Lu       0.05161081       0.00027518      -0.00607010     174.96680000      -0.20086846      -0.01303164      -0.01603211
S        1.85037579       2.92411065       3.26930427      32.06000000       0.03246866      -0.07227217      -0.50565011
S        0.00180233       3.07952861       6.47057691      32.06000000       0.03540023       0.09412114       0.44067936
S       -0.09629558       0.49522025       8.67395870      32.06000000       0.27949794       0.31529746       0.14224011
S        1.79866987       5.50245410       1.03695611      32.06000000       0.17688932      -0.25134256       0.03015570
S        0.00246772       4.11671972       9.63646634      32.06000000      -0.04202314      -0.07350398      -0.10519977
S        1.86211111       0.07501840       5.62382382      32.06000000       0.02114809      -0.00585980      -0.03291089
S        1.86409629       1.88255323       0.08659453      32.06000000       0.00441973       0.06750251       0.07722771
10
Lattice="5.3415688509 -0.0101384542 -1.5524895119 -2.9661531973 4.4413987598 -1.5528697791 0.004664226 0.0082197698 5.6380701396" Properties=species:S:1:pos:R:3:masses:R:1:forces:R:3 source_id=matbench-1000-random-relaxed-sample-577-mpid-wbm-2-15222 material_id=wbm-2-15222 mtt::matbench_energy=-52.555 energy=-53.32656587976089 pbc="T T T"
Os       3.27247042       1.11807680       1.25715370     190.23000000       0.56218455       1.03927948      -0.68744021
Os       0.00570356       0.01091995      -0.00891336     190.23000000       0.56007779       1.04561493      -0.68306497
F        3.03160535       3.45726268      -1.67448533      18.99840316      -0.01524201      -0.04837428       0.00892070
F        0.74318736       3.58495057       2.38500106      18.99840316      -0.02128102      -0.02687343       0.03437642
F       -0.79881588       1.32510942       1.23425601      18.99840316      -0.24466437      -0.53778170       0.24542233
F        3.20139753       3.15164972       1.27448964      18.99840316      -0.27159256      -0.43570145       0.39377678
F       -0.52968796       1.18293932       4.05238597      18.99840316      -0.30712701      -0.49092952       0.25238334
F        1.74019702       1.07747636       0.00666145      18.99840316      -0.22111821      -0.46695166       0.39773988
F        0.49498668       3.71292245      -0.43478099      18.99840316      -0.00937758      -0.04427080       0.03102859
F        2.09182261       1.11198694       2.69688151      18.99840316      -0.03185982      -0.03401132       0.00685790
12
Lattice="5.5522558236 0.0014578805 0.0016212714 0.0006698434 5.0717513652 -2.2640706709 0.0020124798 -0.0668398062 6.6573862357" Properties=species:S:1:pos:R:3:masses:R:1:forces:R:3 source_id=matbench-1000-random-relaxed-sample-469-mpid-wbm-1-44654 material_id=wbm-1-44654 mtt::matbench_energy=-86.257 energy=-75.86642691832094 pbc="T T T"
Er       2.77392097       4.16379888       2.50279097     167.25900000       0.00740889       0.47922637       1.12631903
Er      -0.00114480       3.38848839       0.77092153     167.25900000       0.01194457      -0.55841763      -1.25975183
Er       2.77460524       0.85046868       1.89802505     167.25900000       0.01143807      -0.53861397      -1.23144321
Er      -0.00246134       1.62453354       3.62758569     167.25900000       0.01152523       0.48678952       1.16217923
S        2.03817147       3.18055079      -1.42106419      32.06000000      -0.18542976       0.23465610      -0.10025065
S        4.85539224       4.38890936      -1.95983956      32.06000000      -0.28879607      -0.14719231       0.07258044
S        0.71760159       0.66674488      -0.29680621      32.06000000       0.23211173       0.20172772      -0.09703446
S        3.51824651       1.89172774      -0.84413713      32.06000000       0.20713218      -0.26220984       0.11602231
O        1.38742339       2.51822910       2.18671712      15.99900000       0.03994337       0.05333445       0.04639170
O        4.16099711       5.02317720       1.06864051      15.99900000      -0.00848078       0.03114994       0.06181446
O        4.16306141       2.48975304       2.20168406      15.99900000      -0.04391650      -0.00453748       0.05436392
O        1.38753432      -0.01594328       3.31870940      15.99900000       0.00511881       0.02408687       0.04880905
12
Lattice="5.7059290097 -0.0007256943 -0.0003929736 -2.8535930122 4.9422490308 0.0004256936 -0.0006168936 0.0004144157 9.0412800102" Properties=species:S:1:pos:R:3:masses:R:1:forces:R:3 source_id=matbench-1000-random-relaxed-sample-212-mpid-wbm-3-34013 material_id=wbm-3-34013 mtt::matbench_energy=-58.006 energy=-53.807937899793615 pbc="T T T"
Dy       2.85630710       1.64749094       8.55267100     162.50000000      -0.00602872       0.00137914      -0.10587931
Dy       0.00967838       3.30232756       4.03290894     162.50000000      -0.02012608      -0.01872406      -0.11122001
Dy       2.86144822       1.65088496       5.01273079     162.50000000      -0.01544667      -0.00605778       0.07526159
Dy       0.01003880       3.30409123       0.49336477     162.50000000      -0.02801705      -0.02794789       0.06974066
In      -1.42972910       4.11992542       6.77901696     114.81800000      -0.02880227       0.02775712       0.01639001
In       2.85401595       3.29508949       2.25798571     114.81800000       0.00522217       0.02609284       0.01163707
In       1.42330439       0.82135762       2.26152747     114.81800000      -0.04644081      -0.01456170       0.00505710
In       1.42569646       4.11567794       6.78072946     114.81800000       0.01697468       0.02261311       0.01253927
In       0.00016627       1.64553996       6.77962992     114.81800000       0.00063223      -0.05297398       0.01189109
In       4.27979589       0.82552755       2.25804570     114.81800000       0.04140710      -0.00761458       0.01170649
Ir      -0.01808370      -0.01031855       4.51971230     192.21700000       0.04156111       0.02810524       0.00021289
Ir      -0.01435162      -0.00769810      -0.00111935     192.21700000       0.03906431       0.02193280       0.00266289
9
Lattice="4.0734637292 -0.0007542396 -0.0001024621 -0.0009938004 5.8172871425 -3.3577705513 -0.0001690756 0.0005310969 6.7164609769" Properties=species:S:1:pos:R:3:masses:R:1:forces:R:3 source_id=matbench-1000-random-relaxed-sample-470-mpid-wbm-3-2160 material_id=wbm-3-2160 mtt::matbench_energy=-50.377 energy=-44.73379214452143 pbc="T T T"
Er      -0.00073499      -0.00026406       3.96945897     167.25900000      -0.00334192      -0.00173498       0.01722202
Er      -0.00110549       3.43460828      -1.98222364     167.25900000      -0.00500774       0.02716602      -0.03131912
Er      -0.00024878       2.37693718       1.37247520     167.25900000      -0.01136170       0.00553533      -0.00327353
Mn       0.00198837       0.00336377       0.00062013      54.93804400      -0.00525893      -0.00644344      -0.00146939
Al       2.03721667       4.43714861       2.56207459      26.98153850      -0.00492238       0.07476691       0.04560751
Al       2.03935845       1.38330861      -0.79792938      26.98153850      -0.01378805      -0.09965750       0.04684833
Al       2.03792177      -0.00047606       1.59664387      26.98153850      -0.00360366      -0.00607834      -0.11117938
Si       2.03271961       1.93808487       3.35607950      28.08500000       0.02602136       0.01056209       0.01588993
Si       2.03305511       3.87885790      -0.00138412      28.08500000       0.02126328      -0.00411634       0.02167337
4
Lattice="3.7906061832 0.0008976349 -0.0008846297 0.0009683968 3.9992906022 -0.0002020046 -0.0009548168 -0.0002020131 3.9997172396" Properties=species:S:1:pos:R:3:masses:R:1:forces:R:3 source_id=matbench-1000-random-relaxed-sample-56-mpid-wbm-5-5856 material_id=wbm-5-5856 mtt::matbench_energy=-26.402 energy=-22.948153228800948 pbc="T T T"
Hf      -0.00041121       0.00087842      -0.00040184     178.49000000       0.00290715      -0.00690033       0.00365482
Cu       0.00034096       1.99948372       1.99998879      63.54600000      -0.00116805       0.00129609      -0.00188410
Pd       1.89473354      -0.00013705       1.99955820     106.42000000       0.00000746       0.00158123      -0.00275777
Pd       1.89595647       1.99976113      -0.00051456     106.42000000      -0.00174629       0.00402301       0.00098705
