4
Lattice="4.3538353672 0.0018326123 2.5143900089 1.4523792281 4.1065781708 2.515475841 0.0011990421 0.0021779586 5.0267036964" Properties=species:S:1:pos:R:3:masses:R:1:forces:R:3 source_id=matbench-1000-random-relaxed-sample-646-mpid-wbm-1-22392 material_id=wbm-1-22392 mtt::matbench_energy=-19.623 energy=-18.947338641100032 pbc="T T T"
Ta       1.45131503       1.02840034       2.51336195     180.94788000       0.00004731      -0.00212733      -0.00020929
In       4.35680456       3.08234868       7.54434701     114.81800000      -0.00536872       0.00140665      -0.00859288
Te      -0.00074088      -0.00032632      -0.00119791     127.60000000       0.00514915       0.00208157       0.00778144
Te       2.90374172       2.05546041       5.02834327     127.60000000       0.00017226      -0.00136063       0.00102073
9
Lattice="5.7204709862 -0.0002544493 3.2995682435 1.9068555919 5.3929396184 3.299097529 -0.0008535006 -0.0011803003 6.6006151112" Properties=species:S:1:pos:R:3:masses:R:1:forces:R:3 source_id=matbench-1000-random-relaxed-sample-75-mpid-wbm-1-10606 material_id=wbm-1-10606 mtt::matbench_energy=-24.808 energy=-25.959003099780602 pbc="T T T"
Tl       1.90704870       1.34839739       3.30077806     204.38000000       0.00015067      -0.00054327       0.00056821
Tl       5.72295732       4.04701764       9.89775071     204.38000000      -0.00402995      -0.00270789       0.00007919
Cu       0.00108517      -0.00183460       0.00017451      63.54600000      -0.01831525       0.01890738       0.00001748
Cl       4.79043093       1.31878801       4.91842652      35.45000000       0.02502943      -0.03767283      -0.05179847
Cl       1.86529698       1.31820489       6.59931084      35.45000000      -0.04829483      -0.04131840       0.00012341
Cl       5.75927659       4.07528326       6.59748873      35.45000000       0.05228698       0.03261676       0.00539932
Cl       2.83872666       4.07238038       4.91385577      35.45000000      -0.01938972       0.03064164      -0.04197454
Cl       4.78614045       1.31816973       8.28636137      35.45000000       0.02868374      -0.03581341       0.04593867
Cl       2.83492945       4.06961284       8.28297703      35.45000000      -0.01612133       0.03589029       0.04164699
9
Lattice="4.1621773753 -0.0001529695 0.0005453963 -0.0010288074 5.3270882313 -3.0561761142 0.0009156247 0.0119920239 6.1332325468" Properties=species:S:1:pos:R:3:masses:R:1:forces:R:3 source_id=matbench-1000-random-relaxed-sample-348-mpid-wbm-4-12922 material_id=wbm-4-12922 mtt::matbench_energy=-79.966 energy=-78.74344990390091 pbc="T T T"
Zr       0.00062351       2.27036015       1.30609474      91.22400000      -0.00122564      -0.10706228      -0.05241528
Zr       0.00093181       3.05987183      -1.76225566      91.22400000      -0.00516535       0.12185512      -0.04435590
Zr       0.00062929       0.00408403       3.52215132      91.22400000       0.00083998      -0.00512575       0.14318010
Fe       2.08020374       1.24610230      -0.72397705      55.84500000      -0.00040109      -0.13210534       0.09380901
Fe       2.07978977      -0.00309983       1.44101415      55.84500000       0.00194067       0.00485938      -0.14860616
Fe       2.07970337       4.09887964       2.35950860      55.84500000       0.00139559       0.08999272       0.06109610
Ru       2.08231364       1.78247747       3.07176485     101.07000000      -0.00025248       0.01447840      -0.06167871
Ru      -0.00126340       0.00695994       0.00696593     101.07000000       0.00588603       0.01960852       0.01272516
Ru       2.08217225       3.55122290       0.01126591     101.07000000      -0.00301770      -0.00650103      -0.00375432
48
Lattice="7.5185991419 0.0005267224 4.92483e-05 0.0006062301 8.5836966293 0.0001664159 6.24343e-05 0.0001846447 9.5711381284" Properties=species:S:1:pos:R:3:masses:R:1:forces:R:3 source_id=matbench-1000-random-relaxed-sample-84-mpid-wbm-1-59218 material_id=wbm-1-59218 mtt::matbench_energy=-316.004 energy=-326.2291526707995 pbc="T T T"
V        0.00041482       2.88150489       3.03571281      50.94150000       0.00322699      -0.13988524      -0.05619763
V        0.00138307       5.70596382       6.53085538      50.94150000      -0.00772154       0.12481986       0.05879907
V        0.00206289       7.17282721       1.74686514      50.94150000      -0.00740041      -0.13404626       0.06472881
V        0.00009973       1.41355216       7.82210457      50.94150000       0.00463853       0.12955429      -0.04622663
V        1.81043127       5.70564073       9.13527220      50.94150000       0.03539483       0.00555975       0.00995351
V        1.80236745       2.87967830       0.43974627      50.94150000       0.05279272      -0.00992497      -0.03408229
V        5.71010052       1.41483772       5.22435420      50.94150000      -0.04012592      -0.00285907      -0.02865752
V        5.71450510       7.17029733       4.35049534      50.94150000      -0.04440809      -0.00084126       0.00866076
V        5.71539818       2.87939095       0.43903221      50.94150000      -0.04763097      -0.01014763      -0.03181843
V        5.70717826       5.70533973       9.13454750      50.94150000      -0.02626562       0.00583435       0.01424648
V        1.80416887       7.17020119       4.35024550      50.94150000       0.04941352      -0.00048002       0.00993011
V        1.80863849       1.41330933       5.22449131      50.94150000       0.03651249       0.00662008      -0.02890948
Co       5.67822999      -0.00216023       0.00089459      58.93319400       0.01524356       0.01106937      -0.01110074
Co       1.84067715       4.29274843       4.78623689      58.93319400      -0.01568964      -0.00193141      -0.01218292
Co       1.84192000      -0.00166529       0.00065046      58.93319400      -0.02359990       0.01003090      -0.00455085
Co       5.67764376       4.29149949       4.78568745      58.93319400       0.02040067      -0.00010927      -0.00043683
Co       1.86788246       0.78464379       2.37874180      58.93319400      -0.03338320      -0.00159820       0.14843595
Co       1.86822185       7.80079635       7.19259016      58.93319400      -0.03856115      -0.01306892      -0.15153799
Co       5.65130612       5.07380741       2.40831172      58.93319400       0.03419773       0.02232257      -0.15921942
Co       5.65027295       3.50540722       7.16281453      58.93319400       0.03975825       0.01010058       0.15769475
Co       5.65076136       7.79905464       7.19336226      58.93319400       0.04125643      -0.00642622      -0.15494753
Co       5.64999064       0.78429665       2.37711991      58.93319400       0.03865988      -0.00037512       0.15720522
Co       1.86863244       3.50839570       7.16436622      58.93319400      -0.03984696      -0.00428294       0.15929681
Co       1.86893357       5.07608722       2.40778062      58.93319400      -0.03914067       0.00718083      -0.14834648
Ge       3.75952673       4.62520739       1.16211817      72.63000000       0.00228880       0.04201954       0.10032213
Ge       3.76043389       3.95561950       8.41152230      72.63000000      -0.00705922      -0.03565246      -0.10835323
Ge       3.75972663       0.33123511       3.62380481      72.63000000      -0.00407726       0.04967243      -0.10517354
Ge       3.76016449       8.25096803       5.94700476      72.63000000      -0.00267446      -0.04219206       0.10462307
Ge      -0.00087486       0.36224718       3.62508688      72.63000000       0.00503782       0.10976425      -0.10807992
Ge      -0.00023337       8.22637379       5.94554637      72.63000000       0.00267678      -0.12063204       0.11657973
Ge       0.00020425       4.65529808       1.15871415      72.63000000       0.00460330       0.10804932       0.11526101
Ge      -0.00083330       3.93466129       8.40968805      72.63000000       0.00452283      -0.11857002      -0.11042914
Ge       3.75904807       1.24367988       0.85487692      72.63000000       0.00260710      -0.16933825       0.06080685
Ge       3.75965156       7.34349216       8.71326838      72.63000000       0.00000951       0.16330747      -0.04617778
Ge       3.76060550       5.53615034       3.92892940      72.63000000      -0.01045025      -0.17495431      -0.04925642
Ge       3.75782690       3.05233653       5.64109360      72.63000000       0.01208933       0.16032036       0.05948119
Ge       5.01379027       2.88569747       3.04259220      72.63000000      -0.23043615       0.06122696      -0.04852957
Ge       5.01370939       5.69615150       6.52843710      72.63000000      -0.22028337      -0.05193603       0.06087215
Ge       2.50781277       7.17864619       1.74422308      72.63000000       0.21348101       0.05829359       0.05484677
Ge       2.50613420       1.40501678       7.82875138      72.63000000       0.21161593      -0.04617881      -0.05012494
Ge       2.50703048       5.69741523       6.52891373      72.63000000       0.21631462      -0.05215354       0.05821569
Ge       2.50655816       2.88648300       3.04312089      72.63000000       0.21530289       0.06135372      -0.05124054
Ge       5.01354898       1.40351653       7.82892104      72.63000000      -0.22275369      -0.04362134      -0.04968580
Ge       5.01467680       7.17737464       1.74400713      72.63000000      -0.22204227       0.05949070       0.05590067
Ge       0.00026830       3.11251881       5.69627664      72.63000000       0.00598527       0.13384032       0.22247318
Ge       0.00000432       5.47177033       3.87300283      72.63000000       0.00261481      -0.14521899      -0.21687949
Ge       0.00030672       7.40306917       8.65880700      72.63000000       0.00717852       0.12869142      -0.21520776
Ge      -0.00014367       1.17836662       0.90990507      72.63000000       0.00572610      -0.14269802       0.22901947
6
Lattice="4.357856918 0.0002062045 0.0005456891 0.0005617775 4.3555147897 2.5099955149 0.0006267304 0.0127136499 4.9971007637" Properties=species:S:1:pos:R:3:masses:R:1:forces:R:3 source_id=matbench-1000-random-relaxed-sample-81-mpid-wbm-4-5921 material_id=wbm-4-5921 mtt::matbench_energy=-36.278 energy=-36.72997123590176 pbc="T T T"
Ca      -0.00000305       0.01712304       0.00580543      40.07800000      -0.00000668      -0.00075359       0.01875800
Mn       2.17843755       1.94617371       1.11209342      54.93804400       0.01189752      -0.41405379      -0.25800223
Mn       2.17936654       0.19554696       2.34973933      54.93804400      -0.00067929       0.21534017      -0.14031487
Mn       2.17986380       2.08236036       3.98467119      54.93804400      -0.00175041      -0.12817849       0.22000852
Au       0.00118684       2.97578087       5.03151343     196.96656900      -0.00769917       0.24306643      -0.04574712
Au       0.00031073       1.51978127       2.53118826     196.96656900      -0.00176198       0.08457927       0.20529770
8
Lattice="3.3556077974 0.0003643808 0.0007127505 0.0003641146 3.3520200383 0.0006084483 0.0024074732 0.0020642155 11.1172620482" Properties=species:S:1:pos:R:3:masses:R:1:forces:R:3 source_id=matbench-1000-random-relaxed-sample-145-mpid-wbm-2-39767 material_id=wbm-2-39767 mtt::matbench_energy=-64.096 energy=-55.593789712202124 pbc="T T T"
Ta       1.67864962       1.67499976       1.46681702     180.94788000       0.00130946       0.01417552       0.10420552
Ta       1.68099446       1.67720178       9.65306733     180.94788000      -0.00942875       0.00212887      -0.12072023
Ta       0.00132795       0.00096474       5.55820387     180.94788000      -0.00546514       0.00533607       0.00836997
Pd       0.00060765       0.00244390       2.72740166     106.42000000      -0.00405489      -0.01690989       0.39015230
Pd       1.67981133       1.67944386       6.91410649     106.42000000      -0.00494886      -0.01089993      -0.02224081
Pd       1.67668684       1.67697687       4.20451163     106.42000000       0.01309103       0.00468326       0.02189731
Pd       0.00033578       0.00178001       8.38982378     106.42000000       0.01253670      -0.00006839      -0.39220121
Pd       0.00195636      -0.00181732      -0.00087221     106.42000000      -0.00303956       0.00155449       0.01053741
12
Lattice="5.6605619369 -0.0005424783 -0.0010219551 -0.0005423455 5.6619035449 -0.0002877239 -0.0010221211 -0.0002878634 5.6622584853" Properties=species:S:1:pos:R:3:masses:R:1:forces:R:3 source_id=matbench-1000-random-relaxed-sample-395-mpid-wbm-4-29653 material_id=wbm-4-29653 mtt::matbench_energy=-87.283 energy=-84.90124661655864 pbc="T T T"
Sc       3.35435951       2.30795402       5.13786343      44.95590800      -0.11871066       0.10997868       0.11624831
Sc       2.30495209       5.13719577       3.35410494      44.95590800       0.11178771       0.12010163      -0.11100661
Sc       0.52333434       0.52304637       0.52345138      44.95590800      -0.11166661      -0.11605677      -0.11016020
Sc       5.13595867       3.35352080       2.30697182      44.95590800       0.11042734      -0.11806223       0.11055923
Co       3.23530197       5.25676654       0.40212044      58.93319400      -0.03393779       0.01188595      -0.02099820
Co       0.39855389       3.23340272       5.26219080      58.93319400      -0.00557055      -0.01984866       0.00509927
Co       2.42236861       2.42309358       2.42269918      58.93319400       0.03671895       0.02434732       0.04084557
Co       5.25792251       0.40644743       3.23394675      58.93319400       0.01398372      -0.03530716      -0.01722433
P        1.06511203       1.76825382       3.89822433      30.97376200      -0.06649310       0.06422770      -0.07101772
P        3.89414604       1.06303790       1.76496286      30.97376200      -0.06251303      -0.05391243       0.06834661
P        1.76561957       3.89542464       1.06450417      30.97376200       0.06793189      -0.05338870      -0.07043846
P        4.59635558       4.59829564       4.59465276      30.97376200       0.05804214       0.06603493       0.05974678
4
Lattice="4.3383487601 -0.0008366616 2.5024031569 1.4452061238 4.0910040147 2.503344866 -0.0029327788 -0.0009199691 5.0120807368" Properties=species:S:1:pos:R:3:masses:R:1:forces:R:3 source_id=matbench-1000-random-relaxed-sample-593-mpid-wbm-2-51514 material_id=wbm-2-51514 mtt::matbench_energy=-18.903 energy=-12.73231003050023 pbc="T T T"
La       4.33639152       3.07099760       7.51160474     138.90547000      -0.00685739      -0.02948284       0.01005533
Eu       1.44743625       1.02312723       2.50802168     151.96400000      -0.01285526      -0.00572353      -0.02041353
Zn       2.88903536       2.04315103       5.00628253      65.38000000       0.00942258       0.01481495       0.00793802
Zn       5.78163070       4.08676666       5.00657218      65.38000000       0.01029007       0.02039142       0.00242018
6
Lattice="4.8998009902 0.0279786304 -1.151918523 -3.070479636 3.8190553587 -1.1507150311 -0.0144202038 -0.0287310974 5.035347794" Properties=species:S:1:pos:R:3:masses:R:1:forces:R:3 source_id=matbench-1000-random-relaxed-sample-311-mpid-wbm-3-21467 material_id=wbm-3-21467 mtt::matbench_energy=-55.276 energy=-49.654606701200464 pbc="T T T"
Ta       1.19766884       0.59015792       1.94322571     180.94788000       0.10304107      -0.03038324       0.00205843
Ta       3.07598264       1.33075981      -0.42553622     180.94788000       0.02103419       0.06644810       0.11309151
Ta      -1.26197997       2.48594435       3.15746918     180.94788000      -0.02846520      -0.03823436      -0.11405542
Ta       0.61832406       3.22386446       0.79018866     180.94788000      -0.09666062       0.07300056       0.01503453
Cu       1.37094967       2.88871181      -1.72749566      63.54600000       0.00552684      -0.03828604      -0.00413022
Cu       0.45866461       0.96397016      -0.57505685      63.54600000      -0.00447655      -0.03254528      -0.01199882
12
Lattice="4.0372723417 -0.000432229 9.68061e-05 -0.0004081839 3.9427675675 0.6516039352 0.0002928602 0.005652537 12.2142043745" Properties=species:S:1:pos:R:3:masses:R:1:forces:R:3 source_id=matbench-1000-random-relaxed-sample-565-mpid-wbm-4-35435 material_id=wbm-4-35435 mtt::matbench_energy=-79.654 energy=-78.38578937135208 pbc="T T T"
Y        2.01407940       1.97374194       0.32432801      88.90584000       0.02453809      -0.00080398       0.01027259
Y       -0.00006215       0.72989828       7.82903373      88.90584000      -0.00305318      -0.00116600       0.01792187
Y        0.00015267       3.21818046       5.03742644      88.90584000      -0.00261738      -0.00284081      -0.03294200
Co       2.02078452       2.47469958       9.52936362      58.93319400      -0.02041096       0.08492482      -0.53049571
Co       2.02272389       1.47433521       3.33670477      58.93319400      -0.02852536      -0.09140786       0.51756126
Si       2.01694692       2.84330625       7.29711360      28.08500000       0.00997074      -0.00666379       0.03956028
Si       2.01784736       1.10372260       5.57062423      28.08500000       0.00807635       0.01209370      -0.05531600
Si       0.00090442       2.32278640      10.43359658      28.08500000       0.00026894      -0.01340547       0.07666515
Si      -0.00386387       0.00227761       0.00509492      28.08500000       0.00337226      -0.00412688      -0.00412662
Si       0.00240096       1.62041992       2.42875666      28.08500000       0.00003240       0.01306815      -0.05925956
Si       2.01884097       3.59461566       2.75813084      28.08500000       0.00553764       0.01658644      -0.05959920
Si       2.01891740       0.35398758      10.10500896      28.08500000       0.00281073      -0.00625832       0.07975819
6
Lattice="3.0004539611 -0.0030181861 0.8605091747 1.1351718223 3.3569676936 1.7055174665 -0.2707217095 1.1071497816 6.6053588559" Properties=species:S:1:pos:R:3:masses:R:1:forces:R:3 source_id=matbench-1000-random-relaxed-sample-151-mpid-wbm-4-22561 material_id=wbm-4-22561 mtt::matbench_energy=-28.582 energy=-29.421156475178577 pbc="T T T"
Zn       2.93579777       2.93488002       6.74631963      65.38000000      -0.00661211      -0.19471092       0.04678816
Zn       0.92928272       1.52783028       2.42331823      65.38000000       0.00681291       0.17855308      -0.03747768
N        2.62761677       2.73424901       2.16271754      14.00700000       0.02506543       0.08901030      -0.08141141
N        1.23719024       1.72628737       7.01054908      14.00700000      -0.02502120      -0.07875932       0.07216367
F        0.36348209       0.97870970       4.39546676      18.99840316       0.02617229      -0.08570027      -0.09595768
F        3.50134256       3.48134130       4.77578517      18.99840316      -0.02641731       0.09160738       0.09589520
12
Lattice="3.5842507168 -0.0013927883 -0.0001944 -0.0022968728 7.2821679629 0.0003653351 -0.0003465549 0.000363059 7.2178187234" Properties=species:S:1:pos:R:3:masses:R:1:forces:R:3 source_id=matbench-1000-random-relaxed-sample-898-mpid-wbm-2-17222 material_id=wbm-2-17222 mtt::matbench_energy=-82.305 energy=-86.27248989608779 pbc="T T T"
Sr       0.00178436       2.87918376       1.81038900      87.62000000       0.00282821       0.19959345       0.02909152
Sr      -0.00703159       4.40438274       5.42098333      87.62000000       0.00490438      -0.20558335       0.02386961
Fe       0.00226098       0.04766743       0.02154685      55.84500000      -0.01108814       0.18034720       0.11182704
Fe       1.79366278       1.47837313       3.77813058      55.84500000      -0.00622798       0.32185866       0.14567202
Fe       1.79072980       0.28825223       1.80693458      55.84500000       0.00527462       0.03888202      -0.05964702
Fe       0.00260722      -0.04913927       3.63327509      55.84500000      -0.01245442      -0.18894163       0.09476932
Fe       1.78805411       6.99047945       5.41501774      55.84500000       0.01037054      -0.00451511      -0.06067083
Fe       1.79375903       1.50328209       7.03568827      55.84500000      -0.00915364       0.24731107      -0.16569448
Fe       1.78880527       5.80428129       0.16999152      55.84500000      -0.00613311      -0.33686002       0.13189193
Fe       1.78976172       5.77900048       3.42594853      55.84500000      -0.01425780      -0.26163417      -0.14888153
Ir      -0.00527161       5.79603342       1.78602089     192.21700000       0.02579279      -0.11007638      -0.04305441
Ir       0.00023966       1.48686153       5.39532021     192.21700000       0.01014480       0.11961826      -0.05917317
4
Lattice="4.6512412672 -0.0009783961 2.6845123629 1.5502396701 4.3824983361 2.6831102802 -0.0002113463 -0.0017646261 5.3690725451" Properties=species:S:1:pos:R:3:masses:R:1:forces:R:3 source_id=matbench-1000-random-relaxed-sample-531-mpid-wbm-4-16794 material_id=wbm-4-16794 mtt::matbench_energy=-13.691 energy=-14.32170276999932 pbc="T T T"
La       4.64752852       3.28639468       8.05193462     138.90547000       0.01846335      -0.00767860       0.00781847
Tl       1.55248377       1.09343379       2.68168591     204.38000000      -0.00456345       0.00333086       0.00856666
In       1.55094902       4.38088219       8.05407009     114.81800000      -0.00722917       0.00081453      -0.00843168
In       3.10097295       2.18964725       5.36952693     114.81800000      -0.00667073       0.00353347      -0.00795345
9
Lattice="4.5487000359 -0.0001338455 -0.0006322045 0.0011923645 5.3286519539 -3.0747817813 -0.0016613926 0.0021223531 6.1532397619" Properties=species:S:1:pos:R:3:masses:R:1:forces:R:3 source_id=matbench-1000-random-relaxed-sample-119-mpid-wbm-3-42481 material_id=wbm-3-42481 mtt::matbench_energy=-60.44 energy=-49.022389854406356 pbc="T T T"
Er       2.27204849       2.98090946      -1.72059334     167.25900000       0.01574904      -0.15304466       0.08284197
Er       2.27217360       0.00165269       3.44223593     167.25900000       0.01112182      -0.00627401      -0.17185305
Er       2.27179124       2.34840305       1.35526838     167.25900000       0.01381428       0.16210625       0.09597954
Mn       0.00293836       1.06880032      -0.61761516      54.93804400      -0.02122677       0.38948561      -0.22542172
Mn       0.00086077       4.26297465       2.46323172      54.93804400      -0.01583002      -0.38280666      -0.21897802
Mn       0.00244244      -0.00290616       1.23299686      54.93804400      -0.01884053      -0.00134134       0.44250279
Pd      -0.00066503       1.77594243       3.07649637     106.42000000      -0.01396469       0.00525919      -0.00822007
Pd       0.00034081       3.55324121       0.00082645     106.42000000      -0.01435961      -0.00208928       0.01361142
Pd       2.27406233       0.00303759       0.00126230     106.42000000       0.04353649      -0.01129537      -0.01046259
12
Lattice="4.9101643402 -0.0203018736 -0.0024976118 -0.0323563284 6.8616529774 -0.004894339 -0.0043121358 -0.0048511959 7.6715425066" Properties=species:S:1:pos:R:3:masses:R:1:forces:R:3 source_id=matbench-1000-random-relaxed-sample-302-mpid-wbm-1-29945 material_id=wbm-1-29945 mtt::matbench_energy=-76.825 energy=-75.78656705939648 pbc="T T T"
La       1.20535986       5.46472340       3.54096974     138.90547000      -0.03980813       0.03658397      -0.01176511
La       3.66565745       1.36955230       4.12473442     138.90547000       0.07088634      -0.01833608       0.00236439
La       3.68531410       2.03163338       0.28156745     138.90547000      -0.04666244       0.00820156       0.01794964
La       1.18540954       4.80278794       7.38309858     138.90547000       0.08016622       0.00223763      -0.02509834
Mn       3.70257195       3.51432155       2.85379345      54.93804400      -0.10538797       0.06675072      -0.35028580
Mn       3.62612291       6.75044739       6.69797016      54.93804400       0.05148480      -0.09202235      -0.37323264
Mn       1.24889075       0.08912262       0.96822853      54.93804400      -0.05281354       0.06510624       0.37013061
Mn       1.17080353       3.32338428       4.80785545      54.93804400       0.10781227      -0.07627203       0.35838195
Sn       3.64307086       4.39046263       5.34629736     118.71000000       0.00231554      -0.02439694       0.07769925
Sn       3.66184233       5.87525376       1.51399960     118.71000000      -0.02113884       0.01284420       0.05240500
Sn       1.21421340       0.95915178       6.15179279     118.71000000      -0.01686952       0.00516869      -0.06539806
Sn       1.23171852       2.44815869       2.31459597     118.71000000      -0.02998498       0.01413413      -0.05315062
10
Lattice="5.3873768681 -0.000482241 3.1104392894 1.795528633 5.0791840957 3.110108452 0.0003479822 -0.0001591116 6.2202758301" Properties=species:S:1:pos:R:3:masses:R:1:forces:R:3 source_id=matbench-1000-random-relaxed-sample-374-mpid-wbm-3-22454 material_id=wbm-3-22454 mtt::matbench_energy=-41.827 energy=-44.509977609419366 pbc="T T T"
Tl       1.79105944       1.27435101       3.11082913     204.38000000       0.00272383      -0.00465010      -0.00014655
Tl       5.38090466       3.81157468       9.33019666     204.38000000       0.00462619       0.00000206       0.00066360
Tl      -0.00132749      -0.00110263       0.00064297     204.38000000       0.00244126       0.00258627      -0.00039621
Co       3.59261117       2.53871304       6.22065018      58.93319400      -0.00892301      -0.00183680      -0.00560603
F        2.84214978       3.60495096       7.52433974      18.99840316      -0.01392998       0.01168386       0.01359239
F        4.34636905       1.47633356       7.52404392      18.99840316       0.01007101      -0.02019704       0.02668162
F        2.84186658       3.60189764       4.91499088      18.99840316      -0.01581357       0.01475119      -0.01643192
F        2.08801948       1.47215905       6.22026356      18.99840316      -0.01787817      -0.00386411       0.00483393
F        5.09818483       3.60119702       6.21898959      18.99840316       0.02379222       0.02062462       0.00092894
F        4.34480317       1.47336800       4.91875944      18.99840316       0.01289048      -0.01909970      -0.02412003
10
Lattice="4.8578096428 0.0006017868 2.803596302 1.6197631429 4.5793964692 2.8037246966 2.24015e-05 0.0001730885 5.6071537817" Properties=species:S:1:pos:R:3:masses:R:1:forces:R:3 source_id=matbench-1000-random-relaxed-sample-628-mpid-wbm-1-25075 material_id=wbm-1-25075 mtt::matbench_energy=-46.95 energy=-47.534524907709056 pbc="T T T"
K        1.61993655       1.14457255       2.80252605      39.09830000      -0.00221372       0.00194170       0.00261173
K        4.85850677       3.43454638       8.41083151      39.09830000      -0.00112409       0.00224509      -0.00052039
Li      -0.00139186       0.00262262      -0.00305754       6.94000000       0.00203426      -0.00557107       0.00672343
Ga       3.23828324       2.29010916       5.60761222      69.72300000       0.01323064      -0.00230679      -0.00291152
F        2.46111182       3.39046754       6.95565142      18.99840316      -0.01431153       0.01958692       0.02233209
F        4.01674247       1.18898539       6.95530947      18.99840316       0.01250507      -0.01648566       0.02154636
F        2.46123205       3.39094200       4.26031401      18.99840316      -0.01431539       0.01851991      -0.02410075
F        1.68259455       1.18984286       5.60771373      18.99840316      -0.03162688      -0.01968822      -0.00098036
F        4.79566835       3.38965648       5.60804947      18.99840316       0.02286456       0.01759894      -0.00129044
F        4.01649436       1.18902604       4.26018606      18.99840316       0.01295759      -0.01584057      -0.02341041
12
Lattice="4.8954885851 0.0509229765 -1.7449164972 -2.0466228429 4.4471136565 -1.744618058 -0.0158920599 -0.0247082359 5.7580448965" Properties=species:S:1:pos:R:3:masses:R:1:forces:R:3 source_id=matbench-1000-random-relaxed-sample-731-mpid-wbm-2-5943 material_id=wbm-2-5943 mtt::matbench_energy=-86.387 energy=-88.62792861464186 pbc="T T T"
Co       4.50877105       0.55491525      -0.56878327      58.93319400       0.11387570      -0.21217617      -0.10312335
Co       2.12047328       0.62013184       0.46581312      58.93319400       0.18583316      -0.08642300       0.14415610
Co       3.77222766       1.00331172       2.30791226      58.93319400      -0.24129469       0.01593673      -0.09404684
Co       2.80677353       3.31992773       1.60135800      58.93319400      -0.15551292       0.13634740       0.13963687
B       -1.78449623       4.20645797       1.50271696      10.81000000      -0.08005901       0.04919832       0.05809408
B        2.83890712       1.29645977      -1.37694141      10.81000000       0.07316665      -0.05081528       0.05714637
B        0.92925665       2.12135552       1.03086115      10.81000000       0.04794413      -0.09467522      -0.01150543
B       -0.22197594       2.83482911       3.90935591      10.81000000      -0.10458090       0.00183757      -0.01111874
Rh      -0.89325563       2.86133995       0.06339501     102.90550000      -0.08054238       0.17347798       0.00668204
Rh       1.22405814       1.50298769       2.94360934     102.90550000       0.20706353       0.00348256       0.00594850
Rh       1.60391707       2.96308254      -0.66897488     102.90550000      -0.12712897       0.12567244      -0.10036070
Rh       0.25045050       3.80346734       2.20812963     102.90550000       0.16123568      -0.06186331      -0.09150890
10