16
Lattice="2.8440995466 0.0001678424 -0.0002071552 0.0002392798 4.5733868563 -0.0004136029 -0.0005665899 -0.0008956465 9.9088414689" Properties=species:S:1:pos:R:3:masses:R:1:forces:R:3 source_id=matbench-1000-random-relaxed-sample-758-mpid-wbm-1-21369 material_id=wbm-1-21369 mtt::matbench_energy=-119.009 energy=-117.92522992645536 pbc="T T T"
Ti       0.71022015       2.50585260       6.24627205      47.86700000      -0.00604286       0.04362314       0.06727471
Ti       0.71271409       4.35409399       1.29311286      47.86700000      -0.01029084      -0.06524997       0.06032348
Ti       2.13444036       2.06417115       3.66447775      47.86700000       0.00056719      -0.05028461      -0.11303829
Ti       2.13245193       0.22330008       8.61681691      47.86700000      -0.00579475       0.04249056      -0.12239736
H        0.71232192       4.32923870       3.86783362       1.00800000       0.00140896      -0.19908489       0.12711148
H        0.70914757       2.53364011       8.82479701       1.00800000       0.00425929       0.19906689       0.12653607
H        2.13063675       0.23878127       6.04322382       1.00800000       0.00367205       0.18290056      -0.12018364
H        2.13277690       2.04959807       1.09443411       1.00800000       0.00402069      -0.17156457      -0.11691423
O        0.71166380       0.76342886       3.01876249      15.99900000       0.00123439       0.12639620       0.14747873
O        0.71047106       1.52026351       7.97251692      15.99900000      -0.00229342      -0.12145737       0.13732133
O        2.13235786       3.80871046       6.88546379      15.99900000      -0.00038335      -0.11803857      -0.11608479
O        2.13363498       3.04708287       1.92808318      15.99900000       0.00175298       0.11638124      -0.12177001
O        0.71313901       3.34739851       4.41474633      15.99900000      -0.00871912      -0.05615366      -0.25967704
O        0.70978676       3.51275379       9.36768920      15.99900000       0.00446009       0.06902203      -0.23599281
O        2.13098879       1.22272170       5.49032156      15.99900000       0.00874844       0.07506207       0.27871195
O        2.13342596       1.06023683       0.53721417      15.99900000       0.00340003      -0.07310906       0.26130044
8
Lattice="4.3707990756 0.0008163242 -0.0006945486 -2.184055043 5.5461800451 0.0007266892 -0.0012584969 0.0005496914 7.3894263686" Properties=species:S:1:pos:R:3:masses:R:1:forces:R:3 source_id=matbench-1000-random-relaxed-sample-571-mpid-wbm-4-39208 material_id=wbm-4-39208 mtt::matbench_energy=-26.407 energy=-27.30035714260157 pbc="T T T"
Ba       2.19048981       5.01853632       1.84975770     137.32700000      -0.00186585      -0.15960200      -0.00623081
Ba      -0.00278076       0.52817617       5.54369950     137.32700000      -0.00038669       0.16534738      -0.00264207
Zn       0.00012725       3.46632011       4.16945094      65.38000000      -0.00262098      -0.01764291       0.11247085
Zn       2.18571811       2.07877683       3.21804227      65.38000000      -0.00562660       0.02314996      -0.09793100
Zn       0.00070837       3.46820359       6.91277998      65.38000000      -0.00724897      -0.02245344      -0.09661691
Zn       2.18525245       2.07989067       0.47423320      65.38000000      -0.00173215       0.02363641       0.10994011
Rh       2.18394819       3.16239806       5.54153790     102.90550000       0.01381042      -0.07859039      -0.00514195
Rh      -0.00152130       2.38788250       1.84833258     102.90550000       0.00567057       0.06615474      -0.01384822
10
Lattice="4.2283577428 0.0083563616 -0.0002387203 0.0083557508 4.2307048834 -0.0049077962 -0.0005895364 0.0323505799 10.1349586666" Properties=species:S:1:pos:R:3:masses:R:1:forces:R:3 source_id=matbench-1000-random-relaxed-sample-665-mpid-wbm-1-19460 material_id=wbm-1-19460 mtt::matbench_energy=-64.38 energy=-65.44244543640525 pbc="T T T"
Y        1.07751700       1.08452779       7.62363406      88.90584000      -0.00181648      -0.01582077       0.01243411
Y        3.19447160       3.18854431       2.50464317      88.90584000      -0.00170876       0.00582766      -0.00491389
Ge       1.08092713       3.19142809       5.06276509      72.63000000       0.00337406      -0.00827124      -0.00007713
Ge       3.19749809       3.19670796       8.77952271      72.63000000       0.00261610       0.02441365      -0.07096656
Ge       3.18898335       1.07910117       5.06808282      72.63000000       0.00541089      -0.00733253      -0.00867464
Ge       1.07725844       1.07617820       1.35035300      72.63000000       0.00183088      -0.02368757       0.07396241
Pt       3.19196369       1.05267551      -0.00182675     195.08400000      -0.00467349       0.00095568      -0.00076670
Pt       1.07462489       1.07281131       3.75558001     195.08400000       0.00365405       0.00992857      -0.03431934
Pt       3.19591453       3.19534050       6.37478060     195.08400000      -0.00471257       0.01465683       0.03262164
Pt       1.08412614       3.22010529      10.13151563     195.08400000      -0.00397467      -0.00067029       0.00070011
4
Lattice="3.9462575488 0.0002420866 -0.0001191834 0.0001537164 3.833947033 9.2359e-06 2.03665e-05 9.3717e-06 3.8329422679" Properties=species:S:1:pos:R:3:masses:R:1:forces:R:3 source_id=matbench-1000-random-relaxed-sample-97-mpid-wbm-4-21547 material_id=wbm-4-21547 mtt::matbench_energy=-31.584 energy=-27.166599614502047 pbc="T T T"
Hf      -0.00023314      -0.00049383      -0.00065624     178.49000000       0.00132258       0.00760044       0.00712813
Mn       0.00053807       1.91727761       1.91645809      54.93804400      -0.00223146      -0.00433462      -0.00193681
Pd       1.97289220      -0.00003875       1.91661820     106.42000000       0.00127527       0.00443490      -0.00227337
Pd       1.97323449       1.91745346       0.00041228     106.42000000      -0.00036613      -0.00770071      -0.00291769
4
Lattice="3.6853056192 -0.3224017467 2.7031893743 1.189601109 3.5026469024 2.703883265 -0.4952781601 -0.3216940157 4.5435567296" Properties=species:S:1:pos:R:3:masses:R:1:forces:R:3 source_id=matbench-1000-random-relaxed-sample-253-mpid-wbm-5-14329 material_id=wbm-5-14329 mtt::matbench_energy=-26.509 energy=-28.4329366432994 pbc="T T T"
Nb       1.09500954       0.71392949       2.48810922      92.90637000       0.00205354       0.00105749      -0.00171750
In       3.28569844       2.14337034       7.46282365     114.81800000      -0.01149900       0.00662985       0.00163522
Pt       2.18983896       1.43199255       4.97512366     195.08400000       0.00397955      -0.00762178       0.00083972
Pt      -0.00109872      -0.00146217      -0.00011158     195.08400000       0.00546591      -0.00006556      -0.00075745
3
Lattice="3.1495938662 0.0002777084 -0.9301837618 -0.2743984321 3.1378757649 -0.92958625 -0.1768176792 -0.1919793082 5.196135058" Properties=species:S:1:pos:R:3:masses:R:1:forces:R:3 source_id=matbench-1000-random-relaxed-sample-384-mpid-wbm-1-33908 material_id=wbm-1-33908 mtt::matbench_energy=-25.44 energy=-25.028239255101653 pbc="T T T"
Nb       1.85753806       2.02851371       0.49300622      92.90637000       0.04765822       0.04503724       0.14945051
Nb       0.84081118       0.91911782       2.84644953      92.90637000      -0.04848303      -0.05565795      -0.17318179
Pd       0.00002852      -0.00145736      -0.00309070     106.42000000       0.00082481       0.01062071       0.02373128
10
Lattice="5.6590362478 0.2558579668 -2.7469323961 -4.884068302 5.5876822665 -2.2738256239 0.2503895592 -0.2840803333 7.7459840482" Properties=species:S:1:pos:R:3:masses:R:1:forces:R:3 source_id=matbench-1000-random-relaxed-sample-235-mpid-wbm-3-22884 material_id=wbm-3-22884 mtt::matbench_energy=-55.188 energy=-52.57518876032009 pbc="T T T"
K       -0.76814138       4.23878985      -1.14397301      39.09830000       0.01261100      -0.00852706       0.01091022
K       -2.31620358       2.64759792       2.73107481      39.09830000      -0.01152034       0.01049061       0.00906005
K        1.79655165       1.30270663       3.85866850      39.09830000      -0.00119171      -0.00154832      -0.00018923
Hf       0.00306453      -0.00144744      -0.00004305     178.49000000      -0.06705411       0.06142160      -0.00536229
F        0.50411642       3.97008334       3.88223062      18.99840316       0.04988429       0.23439899      -0.19379973
F       -0.67767101       5.28427637       1.64532489      18.99840316       0.26869699       0.02944350       0.19565812
F        1.68679890       0.26598607       1.10773976      18.99840316      -0.21556771      -0.03239101      -0.20418030
F        0.53825162       1.60124459      -1.13921425      18.99840316      -0.05191211      -0.27282618       0.18898456
F        1.99660051       4.33798684       1.46334349      18.99840316      -0.17044897       0.23999962       0.24365856
F       -0.97877697       1.24241632       1.23183166      18.99840316       0.18650268      -0.26046149      -0.24473996
8
Lattice="5.1300804081 -6.01749e-05 -2.4482316821 -1.1691809 4.9948674306 -2.4483587975 -0.0008107012 -0.0011902481 6.5940870202" Properties=species:S:1:pos:R:3:masses:R:1:forces:R:3 source_id=matbench-1000-random-relaxed-sample-690-mpid-wbm-1-40774 material_id=wbm-1-40774 mtt::matbench_energy=-46.736 energy=-46.41237475771777 pbc="T T T"
K        0.40533077       3.74513489       0.84844841      39.09830000       0.00006813       0.00093948       0.00137991
K        3.55473418       1.24834913       0.84957831      39.09830000       0.00036253      -0.00238547      -0.00184682
K        1.97980249       2.49720680      -2.44958653      39.09830000       0.00079190       0.00017201       0.00229137
Ti      -0.00077590      -0.00060084       0.00108480      47.86700000       0.01620875       0.02343715      -0.01981472
O        0.34502356       0.43522111       4.87151112      15.99900000       0.07863256       0.09841206      -0.29820914
O        4.35119374       1.41750866      -1.63264669      15.99900000      -0.16890682       0.25285102       0.12984096
O        0.38797605       4.55965654      -1.63341194      15.99900000       0.29228326      -0.10579087       0.13385163
O        2.83743128       3.57577830       1.78921684      15.99900000      -0.21944005      -0.26763538       0.05250707
3
Lattice="3.991922076 -6.58474e-05 2.3043189783 1.3304745785 3.7631622031 2.3044992205 -0.0009664118 -0.0004627902 4.6103119904" Properties=species:S:1:pos:R:3:masses:R:1:forces:R:3 source_id=matbench-1000-random-relaxed-sample-734-mpid-wbm-3-62179 material_id=wbm-3-62179 mtt::matbench_energy=-19.396 energy=3.663973053899099 pbc="T T T"
Ce      -0.00066960      -0.00068268       0.00021758     140.11600000       0.00648227       0.00504528      -0.00186096
Sn       2.66117920       1.88142521       4.60972139     118.71000000      -0.00644267      -0.00436830       0.00157480
Rh       1.33056308       0.94123264       2.30440867     102.90550000      -0.00003959      -0.00067697       0.00028642
12
Lattice="4.5629711394 -0.0006595291 -1.9721738688 -0.8407205276 4.482229682 -1.9674791329 -0.0374564088 -0.0451651131 6.1893251512" Properties=species:S:1:pos:R:3:masses:R:1:forces:R:3 source_id=matbench-1000-random-relaxed-sample-888-mpid-wbm-4-17916 material_id=wbm-4-17916 mtt::matbench_energy=-62.419 energy=-64.68638751354047 pbc="T T T"
Li       0.49418243       3.34160401       1.13162630       6.94000000      -0.00223455       0.00343062      -0.00410271
Li       1.82308612       2.19512668       4.21489972       6.94000000      -0.00552530      -0.00307298       0.00041986
Ca       0.00001276       0.00107401       0.00014774      40.07800000       0.00103153      -0.00257933      -0.00081838
Cr       3.19235949       1.09690678       1.12142454      51.99610000       0.01269842       0.00361677       0.02196416
F        1.90564946       4.55958018       0.73191444      18.99840316      -0.00333035       0.09385143      -0.03535627
F        0.28167095       1.11666052       4.28497241      18.99840316      -0.09880595       0.03126076      -0.08996033
F       -0.93793424       4.34352187       0.36932250      18.99840316      -0.10075408       0.00727288       0.01880633
F        1.41494213       1.72563476       0.71629193      18.99840316       0.08550486      -0.02088738      -0.05344501
F       -0.41781206       2.72665417       2.68843383      18.99840316       0.01205565      -0.08677962       0.05157401
F        3.11974904       1.35558705      -0.89330871      18.99840316      -0.02692382      -0.01534254       0.13925120
F        2.67962716       2.44427972       2.55913308      18.99840316       0.02905758      -0.10936393      -0.06914622
F        1.28867183       3.95413705      -1.45244361      18.99840316       0.09722626       0.09859358       0.02081359
