36
Lattice="11.496991141686 0.0 0.0 0.0 14.372336349866 0.0 0.0 0.0 3.3781094156815" Properties=species:S:1:pos:R:3:masses:R:1:forces:R:3 subset=rattled dataset=MAD energy=-310.45705662763794 pbc="T T T"
P        4.92927563      11.31550840       1.45337013      30.97376100       0.34043217       5.51224293       3.27215664
P       10.65442533       9.82924856       0.01439747      30.97376100      -5.72938831       8.25361588       1.21531825
P        6.57139723       3.00369030       1.58999636      30.97376100       0.23591204      -0.77296175       1.67854016
P        0.84163295       4.40019900       0.09768046      30.97376100       8.27301580      -2.25542172      -2.42552626
P        2.85064808       8.27916189       1.64626304      30.97376100      -1.85714194       2.16513499       0.33682406
P        8.47390357      13.07713084       0.13419659      30.97376100       1.50150383       3.15275449      -1.08015355
P        9.04503014       6.01134083       1.83311988      30.97376100      -8.22169190      -0.02045586      -5.03821697
P        3.18256736       0.96940794       0.18508685      30.97376100      -1.29153097       3.38620707      -1.19496065
P        7.63244644       9.30596872       1.37400507      30.97376100       7.99628631       1.87236757       5.16302940
P        2.31972450      12.40353879       0.19243400      30.97376100      -8.63386363     -11.20889296      -4.26636587
P        4.03206621       5.27328151       1.61174272      30.97376100      -8.66904647      -4.72210157      -1.25841325
P        9.55420911       2.26146297       0.03875346      30.97376100      -3.18744428       2.40307098      -2.45915798
Ta       5.41211803       9.10907447       1.53741823     180.94788000      -3.12514932      -9.42642181       3.87140572
Ta      10.89559688      12.64040895       3.28963127     180.94788000       6.02753512       3.27761549       3.04636444
Ta       6.11762640       5.48212839       1.46372266     180.94788000       5.45831745       4.17916983       3.46557501
Ta       0.37004164       1.79126490       2.99904852     180.94788000       0.70562081      -2.96225513       3.05784560
Ta       4.90629620       1.14421133       1.97935023     180.94788000      -0.67899058      -0.40223653      -3.51284873
Ta      10.61116174       5.72071040       3.18437824     180.94788000      -2.52893162       8.40115348       7.22178060
Ta       6.95084559      13.25848922       1.68943258     180.94788000      -5.48175570       0.83344612       1.80742081
Ta       0.79716912       8.53731123       0.12394191     180.94788000       9.47352262      -4.64774419       0.23138212
Ta       1.96279083      13.92875173       1.51640302     180.94788000      -4.28224081       5.96486656       7.41395743
Ta       7.13670643       7.52375764       0.27754189     180.94788000       1.92570826      -3.59162586      -5.52639641
Ta       9.80340074       0.55806670       1.48200139     180.94788000       0.27374007      -3.32553927       2.54785945
Ta       3.73990576       6.80901516       3.18204220     180.94788000       1.61657491       2.29853239       3.53865384
Ta       1.11459229      10.80830023       1.75431617     180.94788000      -1.58718532       0.06316865      -0.02481182
Ta       6.68825309      10.68937038       3.29750846     180.94788000       0.39121052       5.36804622      -2.58001747
Ta      10.72442800       3.94997996       1.49883239     180.94788000      -3.30931311      -7.74141267       2.96836301
Ta       4.87868364       3.66982447       3.26527750     180.94788000      -2.32553499      -1.60252638       0.51471396
Ta      10.20098719       8.19942951       1.85332818     180.94788000      -4.23721256       0.38462983      -2.44012535
Ta       4.17578091      13.08735726       3.25632852     180.94788000      11.47911309       2.82114840      -1.07275880
Ta       0.97232980       6.49590096       1.86484686     180.94788000       5.60032973      -2.64737169      -2.86883916
Ta       7.13986703       1.32442784       3.28402645     180.94788000       2.68243372      -1.39675687       1.17901085
Ta       9.22932760      11.65267398       1.96025975     180.94788000      -1.11672929      -7.30153065      -5.57971177
Ta       3.59621970       9.98630611       0.16373694     180.94788000      -5.17084471       2.37354459      -5.69146222
Ta       2.20512110       2.97729906       1.77625880     180.94788000       2.19424757       1.02176286      -2.17257428
Ta       7.77891656       4.25779580       0.07263395     180.94788000       5.25849149       0.29277655      -3.33786082
12
Lattice="5.0780101850026 -6.874342057303e-14 -3.2234384495304e-32 -2.5390050924513 4.3976858208475 -1.8420378611154e-31 1.4015099444333e-31 -1.4498705221536e-32 8.2947744551171" Properties=species:S:1:pos:R:3:masses:R:1:forces:R:3 subset=rattled dataset=MAD energy=-130.24013704260142 pbc="T T T"
Re       0.13914011       0.42540280       4.12829810     186.20700000       1.50902459      -4.88493292      -2.67718670
Re      -0.08000245       0.19309806       7.98822922     186.20700000       2.91065309      -4.85670149      14.75048746
Re       3.77755391       1.10782362       2.30557432     186.20700000      17.77751661      -7.81415259      -1.93948393
Re       2.46474073       2.73797456       1.86506475     186.20700000       1.40784581      24.70814147      -3.06845965
Re       1.72581093       0.91385266       2.11192287     186.20700000     -20.34955856     -17.01349485      -0.35774480
Re      -1.15582366       3.73053402       6.20365529     186.20700000       1.20898186      -1.43942930      -0.86363982
Re      -0.24113496       1.31674675       6.20603915     186.20700000       1.60960498      13.34159303      -3.76272307
Re       1.28059683       3.68308682       6.13094402     186.20700000      -3.44485389      -6.23813691      -2.44620602
W        0.00940797       2.96371419       3.72788920     183.84000000       0.92846632       2.41235803      -0.72464980
W        2.65832370       1.86038937       4.51114317     183.84000000      -1.25710347      -0.69881214       2.71258374
W        2.63926131       1.25829573       7.82639243     183.84000000      -1.22483406       1.85596461      -1.48278776
W        0.18481165       2.88032331       0.45823451     183.84000000      -1.07574327       0.62760307      -0.14018963
30
Lattice="5.7918496883842 0.0 0.0 -2.8959248442421 5.0158889649759 0.0 0.0 0.0 14.342058403212" Properties=species:S:1:pos:R:3:masses:R:1:forces:R:3 subset=ideal dataset=MAD energy=-204.2131237207359 stress="0.0013178693343687113 -3.110838951776049e-19 0.0 -3.110838951776049e-19 0.0013178693343978143 0.0 0.0 0.0 0.0013791427550499695" pbc="T T T"
Ba       0.00000000       3.34392598       5.91410609     137.32700000      -0.00000000      -0.00000000       0.00007727
Ba       0.00000000       3.34392598       1.25692312     137.32700000       0.00000000      -0.00000000      -0.00007727
Ba       2.89592484       1.67196299      13.08513529     137.32700000       0.00000000      -0.00000000       0.00007727
Ba       2.89592484       1.67196299       8.42795232     137.32700000      -0.00000000       0.00000000      -0.00007727
Ba       0.00000000       0.00000000       3.58551460     137.32700000       0.00000000       0.00000000      -0.00000000
Ba       0.00000000       0.00000000      10.75654380     137.32700000       0.00000000       0.00000000      -0.00000000
In       0.00000000       0.00000000       7.17102920     114.81800000       0.00000000       0.00000000      -0.00000000
In       0.00000000       0.00000000       0.00000000     114.81800000       0.00000000       0.00000000      -0.00000000
Ir       0.00000000       3.34392598      11.99930462     192.21700000       0.00000000       0.00000000       0.00276170
Ir       0.00000000       3.34392598       9.51378298     192.21700000      -0.00000000      -0.00000000      -0.00276170
Ir       2.89592484       1.67196299       4.82827542     192.21700000       0.00000000       0.00000000       0.00276170
Ir       2.89592484       1.67196299       2.34275378     192.21700000      -0.00000000      -0.00000000      -0.00276170
O       -1.38708815       4.14476169      13.13384547      15.99940000       0.00275037      -0.00158792      -0.00291006
O       -1.38708815       4.14476169       8.37924214      15.99940000       0.00275037      -0.00158792       0.00291006
O       -0.00000000       1.74225454      13.13384547      15.99940000       0.00000000       0.00317585      -0.00291006
O       -0.00000000       1.74225454       8.37924214      15.99940000      -0.00000000       0.00317585       0.00291006
O        4.28301300       0.87112727       5.96281627      15.99940000      -0.00275037       0.00158792      -0.00291006
O        4.28301300       0.87112727       1.20821293      15.99940000      -0.00275037       0.00158792       0.00291006
O        2.89592484       3.27363442       5.96281627      15.99940000      -0.00000000      -0.00317585      -0.00291006
O        2.89592484       3.27363442       1.20821293      15.99940000      -0.00000000      -0.00317585       0.00291006
O        1.38708815       4.14476169      13.13384547      15.99940000      -0.00275037      -0.00158792      -0.00291006
O        1.38708815       4.14476169       8.37924214      15.99940000      -0.00275037      -0.00158792       0.00291006
O        1.50883669       0.87112727       5.96281627      15.99940000       0.00275037       0.00158792      -0.00291006
O        1.50883669       0.87112727       1.20821293      15.99940000       0.00275037       0.00158792       0.00291006
O        1.51831891       2.46732414       3.58551460      15.99940000       0.00642719      -0.00371074       0.00000000
O        2.89592484       0.08124068       3.58551460      15.99940000      -0.00000000       0.00742148       0.00000000
O        1.37760593       2.54856482      10.75654380      15.99940000      -0.00642719       0.00371074       0.00000000
O        0.00000000       4.93464829      10.75654380      15.99940000       0.00000000      -0.00742148       0.00000000
O        4.27353078       2.46732414       3.58551460      15.99940000      -0.00642719      -0.00371074      -0.00000000
O       -1.37760593       2.54856482      10.75654380      15.99940000       0.00642719       0.00371074      -0.00000000
4
Lattice="0.0 2.9627396147501 2.9627396147501 2.9627396147501 0.0 2.9627396147501 2.9627396147501 2.9627396147501 0.0" Properties=species:S:1:pos:R:3:masses:R:1:forces:R:3 subset=rattled dataset=MAD energy=-25.148069104101523 pbc="T T T"
Co       1.38779152       1.64431887       1.78385186      58.93319500       3.26557328      -1.00033166      -1.55294332
Fe       4.32475642       4.69695188       4.60295504      55.84500000      -9.51633310      -6.75735386      -7.57327252
Sb       5.63707627       5.69087264       5.64411856     121.76000000       7.70628383       9.78649645      10.30248361
V        3.08779255       3.19851363       3.10749733      50.94150000      -1.45552401      -2.02881093      -1.17626778
24
Lattice="6.7272513326956 0.0 0.0 0.0 10.381110129925 0.0 0.0 0.0 11.019061134436" Properties=species:S:1:pos:R:3:masses:R:1:forces:R:3 subset=ideal dataset=MAD energy=-70.587197119552 stress="-2.511378504278439e-06 0.0 0.0 0.0 5.447956696968322e-05 0.0 0.0 0.0 -2.6463818614534422e-05" pbc="T T T"
Br       2.38219215       5.69255578       6.54514795      79.90400000       0.00184885       0.00088817       0.00108419
Br       5.74581782       9.87910941       4.47391319      79.90400000       0.00184885      -0.00088817      -0.00108419
Br       4.34505918       0.50200072       9.98344375      79.90400000      -0.00184885       0.00088817      -0.00108419
Br       0.98143351       4.68855435       1.03561738      79.90400000      -0.00184885      -0.00088817       0.00108419
Br       2.08332621       7.69081437      10.16364464      79.90400000       0.00200387      -0.00039885      -0.00179032
Br       5.44695187       7.88085083       0.85541650      79.90400000       0.00200387       0.00039885       0.00179032
Br       4.64392513       2.50025930       6.36494706      79.90400000      -0.00200387      -0.00039885       0.00179032
Br       1.28029946       2.69029576       4.65411407      79.90400000      -0.00200387       0.00039885      -0.00179032
Br       2.14938512       9.79545701       6.83480314      79.90400000      -0.00030638      -0.00005869       0.00095839
Br       5.51301079       5.77620818       4.18425800      79.90400000      -0.00030638       0.00005869      -0.00095839
Br       4.57786621       4.60490195       9.69378857      79.90400000       0.00030638      -0.00005869      -0.00095839
Br       1.21424054       0.58565312       1.32527257      79.90400000       0.00030638       0.00005869       0.00095839
Br       5.66839787       7.75661703       7.82932529      79.90400000      -0.00340027       0.00233033       0.00116124
Br       2.30477221       7.81504816       3.18973584      79.90400000      -0.00340027      -0.00233033      -0.00116124
Br       1.05885346       2.56606197       8.69926641      79.90400000       0.00340027       0.00233033      -0.00116124
Br       4.42247913       2.62449310       2.31979473      79.90400000       0.00340027      -0.00233033       0.00116124
In       3.14130684       7.69481457       7.87450753     114.81800000      -0.00025596       0.00165189      -0.00102417
In       6.50493250       7.87685063       3.14455361     114.81800000      -0.00025596      -0.00165189       0.00102417
In       3.58594450       2.50425950       8.65408417     114.81800000       0.00025596       0.00165189       0.00102417
In       0.22231883       2.68629556       2.36497696     114.81800000       0.00025596      -0.00165189      -0.00102417
Na       0.40568398      10.07135210       9.44994753      22.98977000       0.00073088      -0.00085574       0.00255503
Na       3.76930964       5.50031309       1.56911361      22.98977000       0.00073088       0.00085574      -0.00255503
Na       6.32156736       4.88079704       7.07864417      22.98977000      -0.00073088      -0.00085574      -0.00255503
Na       2.95794169       0.30975803       3.94041696      22.98977000      -0.00073088       0.00085574       0.00255503
6
Lattice="4.1327987934358 0.0 0.0 -2.0663993966679 3.5791087438559 0.0 0.0 0.0 9.1739731431011" Properties=species:S:1:pos:R:3:masses:R:1:forces:R:3 subset=ideal dataset=MAD energy=-20.485744920240904 stress="0.0003009833561893072 -5.83282303458009e-20 0.0 -5.83282303458009e-20 0.0003009833561748556 0.0 0.0 0.0 0.00026590293484889723" pbc="T T T"
Be      -0.00000000       2.38607250       6.88047986       9.01218200       0.00000000       0.00000000       0.00000000
Be       2.06639940       1.19303625       2.29349329       9.01218200      -0.00000000      -0.00000000       0.00000000
Na       0.00000000       0.00000000       4.58698657      22.98977000       0.00000000       0.00000000       0.00000000
Na       0.00000000       0.00000000       0.00000000      22.98977000       0.00000000       0.00000000       0.00000000
Sb      -0.00000000       2.38607250       2.29349329     121.76000000       0.00000000      -0.00000000       0.00000000
Sb       2.06639940       1.19303625       6.88047986     121.76000000       0.00000000       0.00000000       0.00000000
6
Lattice="6.0102696867761 1.2387784170559e-20 7.0323316996088e-31 -3.005134843388 5.2050462323076 3.356262625339e-31 -2.7340336827287e-52 8.1118066830492e-32 4.790958114206" Properties=species:S:1:pos:R:3:masses:R:1:tags:I:1:forces:R:3 subset=randcomp dataset=MAD energy=-43.591161892700256 stress="-0.15667871862372962 0.000687234727284542 0.0 0.000687234727284542 -0.12089326623858823 0.0 0.0 0.0 -0.07548431696364116" pbc="T T T"
Ca       3.00513484      -0.00000000       0.00000000      58.93319500        0       0.03684126       1.03131151       0.00000000
Mo      -1.50256742       2.60252312       0.00000000      58.93319500        0      -1.23321868      -1.11880676       0.00000000
Os       3.00513484       1.73501541       2.39547906     118.71000000        0      -0.03116107       2.34850135       0.00000000
Re       1.50256742       2.60252312       0.00000000      58.93319500        0       0.94190544      -0.97493100       0.00000000
Re       0.00000000       0.00000000       0.00000000     118.71000000        1       0.00400899      -0.28232097       0.00000000
Y       -0.00000000       3.47003082       2.39547906     118.71000000        0       0.28162405      -1.00375414       0.00000000
38
Lattice="6.607 0.0 0.0 0.0 8.669 0.0 -0.0904188570014 0.0 8.35551078213" Properties=species:S:1:pos:R:3:masses:R:1:forces:R:3 subset=molcrystals dataset=MAD energy=-203.00179202487016 stress="-0.014674526446040346 -0.00788086518171553 -0.005922255523194057 -0.00788086518171553 -0.012586706632110319 0.005563794175572019 -0.005922255523194057 0.005563794175572019 -0.002262521900271874" pbc="T T T"
C        0.95631600       7.60170000       6.87460000      12.01100000       0.03178573       1.02870342       0.57044985
C        2.05266000       7.73072000       5.71935000      12.01100000      -0.84603624      -0.92334475       0.71566106
C        5.31572000       0.99423900       1.35475000      12.01100000      -1.46375229       0.42661786       1.11548588
C        4.45676000       1.03171000       2.73760000      12.01100000       2.58120963      -0.03896213      -0.17661538
C        0.43237800       3.00450000       5.60999000      12.01100000      -0.06124457       0.59089908       0.69450692
C        3.06386000       3.07256000       6.82083000      12.01100000      -0.23275313       2.38249204       0.82922934
C        6.21049000       5.65121000       2.65717000      12.01100000      -0.15875491      -0.69152297      -0.49928956
C        3.71927000       5.68160000       1.30077000      12.01100000       2.54606296      -1.25595716      -1.60254067
F        1.54911000       8.10242000       8.03583000      18.99840316      -0.09577780      -0.66756481      -0.63429790
F        1.32588000       8.04409000       4.62184000      18.99840316       0.10786927      -0.00668998      -0.58765005
F        4.27196000       0.83197200       0.40455100      18.99840316       1.59378457       0.02754043       0.49107395
F        5.36211000       0.77280500       3.80417000      18.99840316      -0.61936251       0.26621326      -1.01878327
F       -0.07059160       8.55249000       6.61179000      18.99840316       0.85092284      -1.29504287       0.06921888
F        2.85353000       0.09787000       6.02717000      18.99840316       0.41214177       0.69079410      -0.10580327
F        6.10465000       8.55880500       1.43919000      18.99840316      -0.35590818       0.00636029      -0.53184841
F        3.63563000       8.64540700       2.66777000      18.99840316      -0.67830138      -0.58677397       0.22500603
H        0.13480600       2.20090000       6.36442000       1.00800000       0.59160789       0.76060960      -0.97504728
H        3.54462000       2.73779000       5.94425000       1.00800000       0.43142768      -0.80975347      -1.39216767
H        0.30131000       5.10261000       3.25276000       1.00800000       0.66199806      -0.49433689       0.93234236
H        3.35878000       6.35357000       2.02518000       1.00800000      -0.26121545       0.91729546       1.40064617
H        0.76178300       2.74693000       4.60216000       1.00800000       0.53977292      -0.83372229       0.02147498
H        2.62252000       2.34539000       7.43453000       1.00800000      -0.47250037      -1.58769704       0.96190813
H        0.16100000       6.08349000       1.84118000       1.00800000       0.02335168       0.26732813      -0.84008459
H        4.17926000       6.21290000       0.40286500       1.00800000      -0.22980196      -0.53351215       1.00489023
H        6.18747000       3.65108000       5.33241000       1.00800000      -0.15291103       0.22008623       0.56212537
H        3.79699000       3.66431000       7.42526000       1.00800000      -0.44670382      -0.04319842      -0.16188660
H        5.68830100       6.40647000       3.20713000       1.00800000      -0.44048025       0.60811867       0.63443568
H        2.94613000       5.04110000       0.92989400       1.00800000      -0.82914533      -0.63817250      -0.31910915
N        1.28806000       4.93456000       7.63403000      14.00700000       0.50635802      -0.96375648      -0.04385218
N        2.05933000       5.02929000       5.02413000      14.00700000       0.67764218       0.44193385       0.45266081
N        5.41817000       3.66220000       0.77417500      14.00700000      -0.23894942       0.04714263      -0.48277913
N        4.55809000       3.79892000       3.40024000      14.00700000      -0.37418392      -1.49510942      -0.49419444
S        1.70764000       4.12049000       6.31037000      32.06000000       0.53962781       0.84715669      -1.05989283
S        5.01488000       4.48996000       2.04167000      32.06000000      -1.52668362       1.89795520      -0.01750593
S        0.09085670       6.00435000       7.21829000      32.06000000      -0.70379060       1.17853379      -0.09650914
S        3.23037000       6.34856000       5.41017000      32.06000000      -1.80678948      -1.31921251      -0.00190207
S        6.46304000       2.37194000       1.00548000      32.06000000      -0.20137119      -0.44746292       0.10544922
S        3.43845000       2.42787000       3.08777000      32.06000000       0.10085445       2.02601200       0.25519467
112
Lattice="7.166 0.0 0.0 -2.36299698366 11.2433698799 0.0 0.0133879818306 -1.54469613847 12.4797579945" Properties=species:S:1:pos:R:3:masses:R:1:forces:R:3 subset=molcrystals dataset=MAD energy=-698.606437375558 stress="0.003457767544354488 3.3834102597929245e-05 0.001125379739111214 3.3834102597929245e-05 -0.009618022899712319 0.009647536960605416 0.001125379739111214 0.009647536960605416 -0.0025769882877881606" pbc="T T T"
C        1.06089000       1.75886000       7.90886000      12.01100000      -0.60473563       2.13115084       0.49649127
C        3.67266000       8.03574000       4.60780000      12.01100000       0.66482043      -1.02205888       0.00390149
C        1.04190000       1.46852000       9.30502000      12.01100000       0.91194921       0.25427820      -1.34776099
C        3.58628000       8.37360000       3.25493000      12.01100000      -0.63781844       0.79971817       0.60208126
C        0.86173700       2.51725000      10.21930000      12.01100000       0.46390895      -0.63102109       1.65235118
C        3.95583000       7.49613000       2.27042000      12.01100000       0.42524464      -1.10627403      -0.81231120
C        0.44616200       3.79817000       9.78089000      12.01100000      -0.28042550      -0.92946486      -1.16435927
C        4.39496000       6.22709000       2.62528000      12.01100000       0.25967103      -1.19833123       0.65462036
C        0.32318300       3.93703000       8.39014000      12.01100000       0.62150335       0.66396306      -1.10212340
C        4.40733000       5.92174000       3.98328000      12.01100000       0.44461438       0.56900231       0.18348209
C        1.49164000       0.71901600       6.97612000      12.01100000      -1.31351326      -0.26562266      -0.88788873
C        3.31647000       9.00236000       5.62008000      12.01100000      -0.95366900       0.76991182       1.43612201
C        1.14601000       2.26478000      11.67060000      12.01100000      -1.35232914      -3.70298100      -1.20493637
C        3.80082000       7.83866000       0.89670500      12.01100000      -0.30274537       0.04870718      -1.52261343
C        1.39649000       2.50538000       1.14918000      12.01100000      -1.28502713      -1.42874396      -1.76272231
C        3.14694000       7.68774000      11.55120000      12.01100000       0.62734029      -0.80704711       1.11192904
C        0.78120800       1.17406000       1.58535000      12.01100000      -1.44743936       1.19264972       1.03088430
C        4.29600000       8.42188000      10.89800000      12.01100000       0.62121443      -0.28040498       1.46052861
C        0.07656830       4.81978000      10.78920000      12.01100000       1.58467297       0.04824723       0.82938162
C        4.77122000       5.21656000       1.58234000      12.01100000      -0.17818105       1.71619623      -1.09240186
C        4.63366000       1.43389000      10.26460000      12.01100000       0.80506943      -1.36066220       0.58917610
C        0.20140800       8.24269000       2.28591000      12.01100000       1.37468479       0.58818069      -2.02466931
C        4.79301000       1.27360000       8.85789000      12.01100000       0.39448095      -1.82855120      -0.18286677
C        0.00484825       8.44574000       3.70334000      12.01100000       0.07819670      -1.40924033      -0.34027357
C        4.33961000       2.31852000       8.05214000      12.01100000      -0.52950902       2.09186404      -0.45155789
C        0.41084800       7.24039000       4.46980000      12.01100000       0.30063564       0.02330174      -0.24902783
C        3.87590000       3.58695000       8.65545000      12.01100000       1.39758644      -0.58816424      -2.02823695
C        0.92319800       6.02030000       3.84469000      12.01100000      -0.26680355       0.58439529       0.73751670
C        3.97002000       3.65037000      10.00090000      12.01100000      -0.20654993       0.62061809       1.41095722
C        1.04911000       6.04146000       2.48195000      12.01100000      -0.33044950       1.11868472      -0.75510803
C        5.04716000       0.20849900      11.07200000      12.01100000      -2.05513657       1.15136505       0.63897094
C        0.11397800       9.47623000       1.32921000      12.01100000      -0.97145227      -3.58043449       1.08736901
C        4.53536000       2.18812000       6.65988000      12.01100000      -0.02471054       1.28769326      -1.59014012
C        0.33278800       7.23881000       5.86910000      12.01100000      -1.58291178       0.93014162      -0.21370969
C        5.33163000       1.04565000       4.66605000      12.01100000       0.50211420       2.37238496       0.74037651
C       -0.57592100       8.01693000       7.95912000      12.01100000       0.56306422       0.86104952       0.32064597
C        4.13166000       0.91451700       3.79552000      12.01100000      -0.67634606       2.24197827       1.85344280
C        0.60797200       8.48629000       8.74797000      12.01100000       0.12430230      -0.24368157       1.25865267
C        3.51753000       4.79270000       7.77431000      12.01100000       0.67379507      -0.38639238      -0.15425793
C        1.27279000       4.74657000       4.61029000      12.01100000      -0.85762625      -0.87371330       0.13803995
F        6.45463000       1.40963000       1.60011000      18.99840316       1.86011586      -0.43239543      -0.24068437
F       -1.70343000       7.60203000      10.67570000      18.99840316      -1.15480016       0.44578204       0.05511700
F        3.33481000       2.18119000       3.91338000      18.99840316       0.66977994      -1.76648686       0.04867491
F        1.78295000       7.72460000       8.52161000      18.99840316      -0.48465890       0.15904912       0.02160072
H        1.35895000       0.14575500      10.61170000       1.00800000       0.19714906       0.15153558       0.43195348
H        3.02084000       9.52615000       1.86946000       1.00800000      -0.03856117       0.29122630      -0.17912631
H        1.06097000       5.52019000      12.38320000       1.00800000       0.16191716      -0.18366669       0.06640141
H        3.91559798       2.90810386      12.47171382       1.00800000      -0.02465602      -0.05991672      -0.31744856
H        5.31968000       0.42196400       6.89536000       1.00800000      -0.07468895      -0.34531052       0.08842845
H       -0.62847700       8.96395000       5.84279000       1.00800000       0.07437262      -0.38837449       0.92206444
H        4.39317000       6.10618000       6.37544000       1.00800000      -0.41482938      -0.63870753       0.73046767
H        0.27911000       3.37465000       5.69907000       1.00800000       0.24661248       0.72509541      -0.29851176
H        0.02334890       4.84642000       7.80161000       1.00800000      -0.19267622      -0.24852454       1.27147774
H        4.80507000       5.02470000       4.44372000       1.00800000       0.13649903      -0.71200637      -0.47242691
H        1.61835000       1.08760000       5.96535000       1.00800000      -0.14681363       0.50247447      -0.54476433
H        3.26805000       8.64919000       6.66749000       1.00800000       0.39886673      -0.28283645      -0.30542426
H        0.71275100      -0.08837250       6.91109000       1.00800000       0.59201496       0.17350118       0.25527445
H        3.88679000       9.92855000       5.58465000       1.00800000       0.73703927       0.14262341      -0.03431947
H        2.45292000       0.33327400       7.22883000       1.00800000       0.90602551      -0.81873493       0.60830144
H        2.31297000       9.40566000       5.45691000       1.00800000      -0.55508320      -0.02833400      -0.32557326
H        1.04992000       3.10006000      12.32210000       1.00800000       0.33830953       0.98553125       0.83329229
H        4.08629000       7.14154000       0.07506490       1.00800000       0.10036575      -0.03182866       0.57401146
H        0.74926000       3.28704000       1.54678000       1.00800000       0.09035089       0.33834986       0.66406434
H        3.04812000       6.71972000      11.00270000       1.00800000      -0.26687716       0.29971174       0.18456444