32
Lattice="13.106237754734 0.0 0.0 0.0 7.016358850808 0.0 0.0 0.0 8.2758551928001" Properties=species:S:1:pos:R:3:masses:R:1:forces:R:3 energy=-136.52024334883754 pbc="T T T"
Li       9.83353024       0.51392311       2.45358994       6.94000000       0.18669844      -0.52085893      -0.03744539
Li       3.01093793       3.39701756       2.32403477       6.94000000      -0.22360142      -0.12172266      -0.26375691
Li       7.25883735       6.41241817       1.24718958       6.94000000      -0.20101358       0.73578676       0.06595929
Li       2.79076232       0.41119903       5.96414421       6.94000000      -0.28822386       0.72990350       0.14429669
Li       6.78034827       4.33975841       2.73224559       6.94000000      -0.05539644      -0.46560021      -0.22414030
Li       0.68876163       2.39461711       8.05264024       6.94000000       0.24707581      -0.48095953      -0.31133025
Li       9.28368949       3.29878238       6.95716060       6.94000000      -0.67548904      -0.57366216      -0.89639388
Li      10.68591800       3.00384091       2.70108027       6.94000000       0.31990221      -0.06502845       0.82733132
Li       1.90331013       0.06311833       2.38654498       6.94000000      -0.18562713      -0.76380866      -0.63442136
Li      12.38049950       5.44544126       6.55940463       6.94000000       0.36163640       0.11072634       0.16888469
Li       8.70418801       6.19304072       6.11230498       6.94000000      -0.26433253       0.66252650      -0.15599694
Li       5.80916164       3.08628177       6.91190083       6.94000000      -0.14960205      -0.00034731      -0.14465839
P        0.24196212       1.63047102       4.31032967      30.97376200       0.30151078      -2.93048840      -0.28428070
P        7.73654006       1.62413023       4.13900493      30.97376200       0.94927870      -0.05661802       1.41965684
P        3.08920053       4.71298999       8.06135982      30.97376200      -0.16886870      -3.02176225       1.55224724
P        9.46155031       4.95157856       0.75659165      30.97376200      -2.46905201       0.91202878       0.94902811
S        6.67608029       0.28790735       5.23118966      32.06000000      -0.08910839       0.01131490      -0.12350279
S       12.92969935       0.88227130       6.28234532      32.06000000       0.60666082      -0.53535480      -0.69026641
S        4.13467987       5.39541999       1.45213445      32.06000000      -0.21750998       0.43157253       0.04441764
S        7.46107054       4.96933883       7.79001744      32.06000000       1.47657206      -1.11649420       0.95124716
S        3.73345992       5.40329946       6.31464957      32.06000000      -0.13971732      -0.05776091      -0.06924653
S       10.67629934       3.50226851       0.42567356      32.06000000       1.75497657      -2.16386762      -1.24185479
S        7.43242947       1.60354950       2.14625521      32.06000000       0.06404611       0.05429074      -0.64237607
S       12.64270027       3.37618257       4.29930994      32.06000000      -1.17030092       3.67084781      -0.09714866
S        2.29026000       1.59589153       3.91602982      32.06000000       0.48847528       0.28964248       0.74603741
S        9.82599022       1.32536043       4.61681510      32.06000000      -1.36163727       0.30503778      -0.02637338
S        1.06445062       4.43484024       0.64315454      32.06000000       1.02552187       1.41909815      -0.88281629
S        9.18545955       4.93508829       2.79316994      32.06000000      -0.79363172       0.48739177      -0.65554037
S        7.32338951       3.55862009       4.77472561      32.06000000      -0.33395049      -0.37760677       1.08150498
S       12.58190043       0.51569114       2.66355055      32.06000000       0.33738539       0.36413438       0.75354573
S        3.59078018       2.48022050       8.06713049      32.06000000      -0.23534344       1.32528411      -0.09449454
S       10.08510054       6.69044866       0.17024348      32.06000000       0.90266588       1.74235434      -1.22811316
32
Lattice="6.0254233651968 0.0 0.0 0.0 7.886676642706 0.0 0.0 0.0 12.78516507591" Properties=species:S:1:pos:R:3:masses:R:1:forces:R:3 energy=-138.7177646976379 pbc="T T T"
Li       1.24364316       4.48511125       9.17921130       6.94000000      -0.07578329      -0.32300832      -0.20518521
Li       1.61287749       7.66451145       7.81722701       6.94000000      -0.05962149      -0.26859911      -0.29071846
Li       4.53792047       7.47679782      10.91171935       6.94000000      -0.01717846       0.51665447      -0.60641284
Li       1.59671550       3.72087126       1.71499396       6.94000000       0.08258925      -0.50927100       0.32675733
Li       1.10480476       6.72339033       3.49223596       6.94000000       0.27129549       0.42137749       0.32468439
Li       3.85046486       4.35652510       4.57807871       6.94000000      -0.41187793      -0.31301658       0.12356784
Li       5.49617970       2.03840434      12.49392624       6.94000000      -0.53665524       0.44167762       0.60581508
Li       0.93011267       5.92848575      11.94105267       6.94000000       0.21309791      -0.27980919      -0.07727269
Li       3.65751936       4.36518966      12.16012321       6.94000000      -0.22541979      -0.99362831      -0.37342728
Li       4.14920294       2.05003220       8.13692272       6.94000000      -0.16406792      -0.21070082       0.11533979
Li       4.80680860       0.73314399       3.42822608       6.94000000       0.57844924       0.42381437      -0.40650374
Li       0.20837480       5.48951619       6.35142769       6.94000000      -0.14611750      -0.06054946       0.25861939
P        1.68567545       1.78876382      10.80258990      30.97376200       0.11465731       0.18203792      -0.67238637
P        4.77269025       5.52996425       1.66539267      30.97376200      -0.83333099      -1.05511414       0.59507718
P        3.72173651       5.95922385       8.65428726      30.97376200      -0.86192612       1.24690734      -1.74262647
P        1.79317804       2.04947425       4.48391641      30.97376200      -1.50104689      -0.19464013      -0.60961155
S        0.66604427       0.34210365      11.71263610      32.06000000      -0.51599619      -0.76106608       0.97748202
S        0.67653333       5.92692336       1.42084906      32.06000000       1.22111775      -0.07871646      -0.24271903
S        2.16957961       6.53586530      10.02070023      32.06000000       1.79726183      -0.25728561      -0.69459021
S        3.75955929       1.97209094       4.94797584      32.06000000      -0.06686136       0.22521284       0.77727634
S        1.32524487       1.79068834       8.81488709      32.06000000      -0.48767738       1.46302423      -0.38891187
S        3.85070768       6.45926168       0.07302933      32.06000000      -0.50148729      -0.03483445       0.85643240
S        2.52657329       5.49980701       6.94355749      32.06000000       0.46228133       0.13926530       0.26323544
S        1.16712089       4.06073647       4.38274533      32.06000000       0.01728953      -0.00782248      -0.10577126
S        1.28793485       3.43229505      11.92581679      32.06000000      -0.99052683       1.19916073       0.14191526
S        4.27646108       6.42371530       3.60676480      32.06000000       0.11100735      -1.02445390      -1.24903344
S        5.11312245       7.53975626       8.29617285      32.06000000      -1.27542854      -0.69553250       0.51757180
S        0.57276168       1.09751882       5.87434973      32.06000000       0.49212548      -0.19914265      -0.78964610
S        4.36164972       3.33286894       1.50712047      32.06000000      -0.31639736       2.35792654       0.41919908
S        3.64233589       1.83744743      10.88526714      32.06000000       2.28772917      -0.39115091       0.14858396
S        1.33832245       1.25979311       2.51577453      32.06000000       0.25468309       0.16775704       1.43305861
S        4.85466372       4.34375241       8.73265572      32.06000000       1.08381583      -1.12647377       0.57020062
32
Lattice="6.3504440065675 0.0 0.0 0.0 8.3121596646363 0.0 0.0 0.0 13.474943633096" Properties=species:S:1:pos:R:3:masses:R:1:forces:R:3 energy=-137.64090344723627 pbc="T T T"
Li       1.63217397       4.26683539       7.14882246       6.94000000      -0.19282068       0.17790993      -0.04979707
Li       4.24988161       0.62652147       6.64569012       6.94000000      -0.05910366      -0.04752608       0.08303445
Li       0.00660700       7.97251442       0.18818970       6.94000000       0.09893570       1.45969234      -1.03589331
Li       3.88370929       1.05092228       3.03073480       6.94000000      -0.23446720      -0.67374787      -0.43194082
Li       2.47770447       4.91332519      10.53286485       6.94000000       0.56046480       1.18036623       1.03471890
Li       1.35293415       7.07419903       3.49075016       6.94000000       0.37406548      -0.31721552       0.21122666
Li       5.28028750       3.39420881       9.22933778       6.94000000       0.20204267       0.02681915       0.31682557
Li       2.26760829       4.11493213       2.38737005       6.94000000      -0.56897400       0.02365038      -0.26808006
Li       5.90317842       4.11222493      13.14296591       6.94000000       0.04721527      -0.29839290       0.03658762
Li       5.07119088       4.71834624       3.85678595       6.94000000       0.13386545      -0.73102874       0.52710623
Li       1.33368405       0.60075073       8.91318537       6.94000000       0.04552250      -0.49849914       0.46008746
Li       4.83607014       7.92727131      11.11533773       6.94000000       0.16978528       0.11803413       0.75437456
P        0.98689266       2.11296482      11.43050773      30.97376200      -1.13952246      -1.82395164       5.66929538
P        4.82116818       6.36113053       1.66785966      30.97376200      -1.04630646      -0.38465517      -0.14330001
P        4.39832641       6.23904007       8.72720881      30.97376200       0.72308421       0.16072470       0.87746764
P        1.99957129       2.26119561       4.98190618      30.97376200      -0.41410087      -0.11148986      -2.10395475
S        5.35032274       2.08115862      11.85011585      32.06000000      -1.00551258       1.10300414      -0.59071382
S        0.55016310       6.37918802       1.42343361      32.06000000      -0.11985126      -0.96390878       0.92638248
S        2.35888703       6.22613597       8.55998511      32.06000000      -0.18883065       0.02736110      -0.12445311
S        1.27854950       0.99041525       3.47627877      32.06000000       0.44908317       1.25645990       0.01178233
S        1.84062158       3.33310166      13.03337948      32.06000000      -0.32265483      -0.73305793      -0.77969822
S        4.06015130       7.83357115       0.38377893      32.06000000       0.31383384      -1.05887049       0.70733091
S        5.24074075       5.37374191       7.12487494      32.06000000       0.30015130      -0.70976409       0.17209964
S        4.05766129       2.34023832       4.91267554      32.06000000       0.14623859       0.32167380       0.20775144
S        1.11525926       0.00135074      11.53173444      32.06000000       1.31394882       0.47063701      -0.67841092
S        3.88643299       6.65789440       3.50196378      32.06000000       0.63741590       0.94782352       0.19341330
S        5.00564985       8.23849324       8.89912549      32.06000000      -0.24038737       0.15000513      -0.89331778
S        1.39633626       1.54627850       6.69029945      32.06000000      -0.40271778      -0.03405489       1.47374995
S        4.42017130       4.25215443       1.62307823      32.06000000       0.59041096       0.77123856      -0.94417491
S        1.71775954       3.05702500       9.97644783      32.06000000       0.43340387      -0.28812431      -4.54595166
S        1.21986568       4.17208232       4.58015423      32.06000000       0.23835401      -0.27554548       0.37184154
S        4.99225359       5.28069647      10.62205048      32.06000000      -0.84257200       0.75443287      -1.44538962
32
Lattice="6.3504440065675 0.0 0.0 0.0 8.3121596646363 0.0 0.0 0.0 13.474943633096" Properties=species:S:1:pos:R:3:masses:R:1:forces:R:3 energy=-137.12356421093682 pbc="T T T"
Li       0.41038538       8.27313237       9.48283481       6.94000000       0.48403890      -0.48924111      -0.37069419
Li       2.81613297       5.64935689       4.57866759       6.94000000      -0.49453734       0.08557138       0.12852530
Li       5.79740797       0.11401905       4.91795530       6.94000000       0.02295548      -0.11341545       0.12285632
Li       2.80474980       3.21087149      13.10146767       6.94000000      -0.09455784      -0.29312050      -0.10483653
Li       1.82619845       0.52997504       2.11526559       6.94000000      -0.32107630      -0.26053246      -0.29112277
Li       2.25493027       7.78315878       6.87155255       6.94000000       0.09833885       0.88906319       0.00830578
Li       5.79140871       4.35138456       6.29151125       6.94000000       0.13783861       0.23514541       0.33460127
Li       4.52525718       2.03731198       7.96159737       6.94000000      -0.27804035      -0.16489550       0.48379715
Li       6.09591885       5.24231057      13.22331173       6.94000000       0.40130736      -0.54488852      -0.18103924
Li       4.07357105       0.12497103      12.06849365       6.94000000      -0.65988971       0.59091775      -0.38176630
Li       5.64022559       2.85663039       3.50068353       6.94000000       0.11173226       0.23713268      -0.40137882
Li       2.55567332       4.13055549       9.70187241       6.94000000      -0.18307676       0.01787673      -0.16662994
P        0.04996847       2.20756357      12.08879856      30.97376200       0.52742622      -1.01387155      -0.53708412
P        5.47609328       6.76536424       2.02228048      30.97376200      -0.52242214       0.71971583      -0.93051842
P        3.90359062       6.04641777       8.20131838      30.97376200      -2.65268357      -0.39623976      -0.04829403
P        2.63645605       1.83822619       5.24476630      30.97376200      -3.00721713      -0.18065906       0.75719539
S        5.04646860       2.55598386       0.01198774      32.06000000      -0.62975717       0.70470254       0.80072021
S        1.01991369       6.30990023       1.62776041      32.06000000       1.16410157      -0.57334902       0.62237241
S        2.20470460       5.66300273       6.85578376      32.06000000       0.99706255      -1.61608966      -0.14118801
S        2.17706493       8.26975203       4.46201501      32.06000000       0.07714400       0.84870744       0.34541714
S        1.11141788       3.88820731      11.60547897      32.06000000      -0.12740397       0.63760012      -0.20274459
S        4.79904705       7.01940359       0.03631502      32.06000000      -0.68706843      -1.21833111       1.08497286
S        4.88809361       4.41142420       8.91459962      32.06000000       0.24625721       0.08176494      -0.64621477
S        1.80756053       1.68761525       7.46299798      32.06000000       0.48536115       0.55116878      -1.72414593
S        1.37536456       0.84011103      12.85823360      32.06000000       0.32483794       0.23697840      -0.20253315
S        5.26605425       0.38356809       2.64754138      32.06000000      -0.01293126       0.27581799       0.71766669
S        4.94948780       7.52048347       7.33108783      32.06000000       0.69510753       0.38215706       0.03623839
S        2.04476613       3.30762051       3.91198274      32.06000000      -0.81452018      -0.77385308       0.41936474
S        4.54742277       5.33589644       3.24485716      32.06000000       0.95107526       0.11168198      -0.70249774
S        5.30089787       1.37723286      10.44798799      32.06000000       0.30212474       0.41288389       0.33205574
S        4.49477314       2.31216047       5.65426769      32.06000000       2.74941634       0.05361948       0.00135277
S        2.58027050       6.59483132       9.69175108      32.06000000       0.70905618       0.56598121       0.83724638
16
Lattice="6.0292863588177 0.0 0.0 0.0 6.4555569043862 0.0 0.0 0.0 7.6143254496873" Properties=species:S:1:pos:R:3:masses:R:1:forces:R:3 energy=-71.28670483461883 pbc="T T T"
Li       3.07325387       5.11281072       5.74712661       6.94000000       0.20829382       0.12861016      -0.07301942
Li       0.08445643       1.38044370       5.63410462       6.94000000       0.04999353      -0.09637813      -0.07813496
Li       0.13068659       1.25060422       1.70101905       6.94000000      -0.15453879      -0.26029862       0.10897594
Li       2.79694735       5.11715723       2.24385620       6.94000000       0.50424659       0.20068539      -0.32610209
Li       2.37796501       2.25934785       7.60682381       6.94000000       0.21879361       0.05252016       0.00668102
Li       5.75988398       4.22015799       3.90500900       6.94000000       0.16933358      -0.14855488      -0.23132408
P        0.07056435       4.52333583       0.07387202      30.97376200      -0.35639685       0.34683794      -0.67013681
P        3.02137910       1.89587593       3.74338493      30.97376200      -0.06912766       1.16313864      -0.13684670
S        5.55842442       5.48391148       5.89400183      32.06000000      -0.27140751      -0.15254090       0.79424157
S        2.58773594       1.04979341       5.50961674      32.06000000      -0.57885651      -0.68968498       0.24697307
S        2.43485374       0.91531199       2.04650499      32.06000000      -0.39121570       0.33361463       0.23215976
S        5.32251532       5.44602827       1.71028124      32.06000000      -0.14928288       0.01545834      -0.05739064
S        2.09387408       4.57017735       0.17938634      32.06000000       0.57937206       0.13763927      -0.22328853
S        5.03625687       1.95957052       3.56918197      32.06000000       0.62637931       0.25663214       0.46326836
S        5.50111846       2.59922836       7.57941046      32.06000000      -0.39131782      -0.42580633      -0.28434140
S        2.21890158       3.83894008       3.91862674      32.06000000       0.00573121      -0.86187282       0.22828491
32
Lattice="6.1922200212698 0.0 0.0 0.0 8.10499678584 0.0 0.0 0.0 13.139085896532" Properties=species:S:1:pos:R:3:masses:R:1:forces:R:3 energy=-141.2025102283369 pbc="T T T"
Li       1.31654895       0.21925041       1.70238185       6.94000000       0.24790577      -0.01439228       0.29205683
Li       4.79418455       0.67511669      12.88320170       6.94000000      -0.06492629      -0.33033850       0.00048675
Li       1.31692544       4.36616344       6.68030133       6.94000000      -0.14800384       0.07916017      -0.03828106
Li       5.68887117       2.29501074       3.45440734       6.94000000      -0.37275956      -0.49180078      -0.14553383
Li       4.68175489       7.58617544       5.03518885       6.94000000       0.04276973       0.25229621      -0.04390933
Li       3.47737305       4.21706655       4.46291440       6.94000000      -0.03275025       0.14651381       0.70844323
Li       2.00062827       3.89509588       1.81890704       6.94000000      -0.60165301       0.05954303      -0.07727999
Li       1.58535261       6.04624463      12.61635354       6.94000000      -0.22794731      -0.10074152       0.06058893
Li       1.62123404       7.39844529       7.46754985       6.94000000      -0.09137782       0.12901654       0.13490326
Li       4.57636949       1.62127553       7.71948031       6.94000000       0.01278546       0.28187015       0.08579199
Li       4.67600170       3.64563981      12.92345360       6.94000000       0.01836011       0.11890871      -0.21020062
Li       1.04509751       4.04575259       9.72792997       6.94000000       0.02552198       0.02770793      -0.00462987
P        1.25668009       1.93715058      12.27524705      30.97376200       0.43195912       1.56958950       0.48287432
P        5.00805021       6.07946465       1.57008383      30.97376200       0.78966427       0.31835939      -0.17409484
P        4.22262159       5.88934120       7.87708036      30.97376200      -0.50455152      -0.04087844       0.66406814
P        1.93519694       1.86188477       5.32192517      30.97376200      -0.95713929      -0.06076878       0.49003499
S        5.97045371       1.89480818      10.98170096      32.06000000      -1.07286540      -0.26518506      -0.70604327
S        0.86536770       5.99371850       1.93152433      32.06000000      -0.19625524      -0.00014813       0.42310957
S        2.76118645       6.15115322       9.33064085      32.06000000       0.20804232      -0.46497468      -0.58550303
S        3.97933607       1.95203420       5.42401816      32.06000000       0.35766774      -0.11119586      -0.86548092
S        0.39849413       2.39430918       0.97359594      32.06000000      -0.59822120      -0.30086711       0.13585462
S        4.97437753       6.12470872      12.65275265      32.06000000      -0.52964969      -0.15803585       0.07014751
S        3.10068854       5.98146038       6.08247531      32.06000000       0.33779363       0.04001120       0.10399395
S        1.41794656       1.98716824       7.32399870      32.06000000       0.11574974      -0.29333198       0.01796061
S        2.36908765       0.31008966      12.55921174      32.06000000       0.60853318      -0.47573736      -0.27627582
S        4.22807136       7.81986673       2.31943038      32.06000000       0.12229273      -0.65348218       0.22457728
S        5.44225796       7.51146630       8.01678923      32.06000000       0.19379006      -0.00419191      -0.38425339
S        1.00948295       0.29727919       4.43892822      32.06000000       0.21409908      -0.25701917      -0.25862290
S        4.13313720       4.31419709       2.35225472      32.06000000       0.87154344       0.42312288      -0.76878002
S        2.33983808       3.66744572      11.81574160      32.06000000       0.49323906      -0.32487619       0.14509991
S        1.19828188       3.50980170       4.30214394      32.06000000       0.52356530       0.60979812       0.34775678
S        5.39339082       4.16979081       7.89811843      32.06000000      -0.21718232       0.29206814       0.15114021
16
Lattice="6.128189579059 0.0 0.0 0.0 6.5613913004027 0.0 0.0 0.0 7.7392293374978" Properties=species:S:1:pos:R:3:masses:R:1:forces:R:3 energy=-68.88082099591884 pbc="T T T"
Li       4.80454659       4.87797885       2.88462401       6.94000000      -0.12937826      -0.70687471       0.19381348
Li       6.11723054       0.85692987       2.55755947       6.94000000       2.44011264       0.51278540       0.05321819
Li       0.45532449       2.46610299       6.63129188       6.94000000      -0.31558966      -0.36506183      -0.32067323
Li       3.82617132       5.92549113       0.49821568       6.94000000      -0.30824741      -0.13976832      -0.32662604
Li       3.08670658       2.74395020       0.40407382       6.94000000       0.17712905       0.01079637      -0.56152705
Li       3.20146184       5.88858411       5.04747538       6.94000000      -0.35942629      -0.03950720       0.13669789
P        0.24704571       5.50279496       7.19260341      30.97376200       1.68332339      -1.01553520       2.05282653
P        3.05027021       2.13023040       3.50721008      30.97376200      -0.93076174       0.09619033       2.68120038
S        5.20699093       0.44531409       6.44328883      32.06000000      -0.57864712      -0.82949026      -0.38434429
S        1.46495169       1.12564057       4.55060851      32.06000000       0.84735016       0.30494345      -0.88512897
S        4.09314712       0.67278391       2.54002550      32.06000000      -0.90934026      -0.84381082      -0.47657968
S        1.56946612       6.39255049       0.82163824      32.06000000      -1.04994122       0.99350026       0.25451093
S        1.75647824       4.30353461       6.33290175      32.06000000      -0.28423837       0.52098524      -1.06115652
S        4.15262120       3.04075864       5.00245647      32.06000000       0.50546249       0.06395082      -0.08117190
S        5.35250602       4.01030932       0.68691796      32.06000000      -0.10918472       0.92463198      -0.76936912
S        2.51436677       3.67383188       2.39327865      32.06000000      -0.67862268       0.51226449      -0.50569060
32
Lattice="14.491150072602 0.0 0.0 -0.32971713760191 7.2380541294133 0.0 0.0 0.0 9.8191308334447" Properties=species:S:1:pos:R:3:masses:R:1:forces:R:3 energy=-127.62588705283633 pbc="T T T"
Li       0.46931328       3.37696979       4.87708060       6.94000000       0.30657531      -0.18112115      -0.65750810
Li       8.49421223       6.29874068       3.10226975       6.94000000       0.07102020       0.64537648       0.14321728
Li       3.82304942       0.85041024       3.54575981       6.94000000      -0.36703851       0.36987384       0.35366455
Li      12.19010035       5.17897039       5.62483989       6.94000000      -0.36083057       0.04190043      -0.37538462
Li       6.34562969       3.82614038       1.00272962       6.94000000       0.19300078      -0.45465169       0.43801102
Li      10.97438270       7.12915314       0.53296856       6.94000000      -0.15079965      -0.10528088       0.27256667
Li      13.42798076       1.18658029       2.05755058       6.94000000      -0.00588999       0.04880006       0.35481953
Li       9.49687229       1.43920451       6.05178975       6.94000000      -1.00023445       0.12915687       0.28736678
Li       5.78839280       6.43918891       9.60689055       6.94000000      -0.17755150       1.04131092       0.97777340
Li      11.55888324       3.57103383       8.98546077       6.94000000      -0.05933686       0.45464080       0.57131919
Li       1.02239991       5.54438068       8.05564047       6.94000000      -0.35796554       0.39357432       0.20219621
Li      11.82191791       0.91316562       4.41839948       6.94000000      -0.37276974       0.44608930       0.14297983
P        0.05508666       6.76146049       5.28702075      30.97376200      -0.48886001       2.51384267       2.48647539
P        8.67083036       4.36868034       9.28357995      30.97376200       4.56544052       1.36216598      -0.59797859
P        6.35638937       1.21217021       2.85198006      30.97376200      -0.30026411      -0.80390574      -0.43460751
P       13.80999936       4.25701009       2.15498038      30.97376200       0.26779550      -2.22880550      -4.31119942
S        1.93607271       7.09179060       5.95251957      32.06000000       0.04338888      -0.34409951      -0.56475778
S       10.46888357       5.70251390       8.71726001      32.06000000      -0.76973461      -0.43002338      -0.55086134
S        1.19262020       3.15688980       2.42760963      32.06000000      -1.87038621       0.54060498      -0.45387500
S        6.87921992       1.32518959       0.72262728      32.06000000       0.18747358       0.62298446       1.58659704
S        8.89476066       4.72469022       1.40776886      32.06000000      -0.43309016      -1.30225666       0.55731448
S       14.06200046       5.40897972       3.81981934      32.06000000      -0.36483627      -0.33606412       1.86656096
S        7.65899741       0.91430607       4.53285058      32.06000000       0.33749636      -0.63733912      -1.18168221
S       11.17900064       6.94919044       2.78501066      32.06000000      -0.64673280      -0.82550400      -0.41968702
S        5.32753945       2.85900972       3.52748067      32.06000000      -0.12683922      -0.63221145      -0.96592035
S       11.73719974       3.06402036       1.76553941      32.06000000       2.28426280       0.42372386       0.76846961
S       13.46409995       6.33229059       7.07023937      32.06000000       0.32111049      -0.53143902      -0.49472071
S        7.09961003       5.08244049       8.52635070      32.06000000      -3.07819926       0.23928477      -1.59400274
S        4.88814315       6.58673635       2.70321971      32.06000000       0.92423070       0.72445403      -0.08345189
S       13.86079954       5.45385012       0.40053829      32.06000000       0.13420570      -0.54631590       0.73016559
S       13.90243406       1.24022653       4.57809050      32.06000000       1.25592937       0.58555687       0.49887282
S        9.43319963       2.96320978       7.95827008      32.06000000       0.03942926      -1.22432252       0.44726693
32
Lattice="6.3504440065675 0.0 0.0 0.0 8.3121596646363 0.0 0.0 0.0 13.474943633096" Properties=species:S:1:pos:R:3:masses:R:1:forces:R:3 energy=-142.0111344994366 pbc="T T T"
Li       2.21898294       0.05085499       8.91356830       6.94000000       0.16617362       0.07140803      -0.13147801
Li       3.51123225       8.08073742       4.28044629       6.94000000       0.13084745      -0.29289950       0.10449570
Li       5.90094878       7.88146620      11.41563245       6.94000000      -0.11143620       0.20096394       0.00549552
Li       0.84437917       0.30580055       2.40572600       6.94000000      -0.18031479       0.07461371      -0.40697262
Li       3.86720258       4.38977173       4.60852230       6.94000000       0.01457499      -0.16956618      -0.15736892
Li       2.67484448       3.71548793       8.85986323       6.94000000      -0.30493339      -0.05714057       0.33739914
Li       1.00634534       4.20566156       2.43365017       6.94000000      -0.40654758      -0.11953826      -0.24425803
Li       5.42967725       4.25653624      11.09044336       6.94000000       0.26048891      -0.07649020       0.32913600