4
Lattice="4.0060264358 0.0002757149 -0.0002543179 0.0002757209 4.0068287464 -0.0005818612 -0.0002543212 -0.0005818581 4.0064828324" Properties=species:S:1:pos:R:3:masses:R:1:forces:R:3 source_id=matbench-1000-random-relaxed-sample-729-mpid-wbm-1-60533 material_id=wbm-1-60533 energy=-13.47123654979805 mtt::matbench_energy=-13.404 pbc="T T T"
Zr      -0.00032706       0.00000326       0.00049914      91.22400000       0.00019052      -0.00422432      -0.00804832
Zn       0.00121013       2.00280140       2.00254740      65.38000000      -0.00312826       0.00236182       0.00416416
Zn       2.00261711       2.00277801      -0.00021253      65.38000000       0.00190879       0.00435622       0.00016018
Zn       2.00254765       0.00093993       2.00281265      65.38000000       0.00102870      -0.00249397       0.00372399
6
Lattice="4.7592960997 -0.0601954846 2.0717255551 1.7983581014 2.8787486038 2.4967463193 -0.0638497987 0.3804141042 6.7541799301" Properties=species:S:1:pos:R:3:masses:R:1:forces:R:3 source_id=matbench-1000-random-relaxed-sample-552-mpid-wbm-3-52476 material_id=wbm-3-52476 energy=-36.0744600534581 mtt::matbench_energy=-34.551 pbc="T T T"
Ba       0.00104081      -0.00091477      -0.00079873     137.32700000      -0.00424489       0.00455728       0.00032165
Sr       3.24796327       1.60188545       5.66143635      87.62000000      -0.00259399      -0.00022317       0.00244435
O        4.23232234       2.13182091       3.36968137      15.99900000      -0.06867674      -0.01445011       0.05096672
O        2.26003460       1.06513758       7.95532074      15.99900000       0.07562617       0.01204639      -0.05620817
O        0.86621418       0.96570889       4.29290639      15.99900000       0.03271317       0.09546557      -0.04497322
O        5.62693578       2.23377996       7.02808341      15.99900000      -0.03282399      -0.09739570       0.04744868
12
Lattice="6.7179824373 -8.3956e-06 0.0001162456 -4.3552e-06 6.7387981504 -0.0001267172 0.0001151828 -0.0001271215 6.7343047707" Properties=species:S:1:pos:R:3:masses:R:1:forces:R:3 source_id=matbench-1000-random-relaxed-sample-260-mpid-wbm-3-73397 material_id=wbm-3-73397 energy=-47.95643758019287 mtt::matbench_energy=-43.861 pbc="T T T"
Sn       5.86586162       5.90201264       2.54992297     118.71000000      -0.05230935      -0.05981440       0.04208459
Sn       5.86412363       2.53387624       4.18374861     118.71000000      -0.05797478      -0.07445426      -0.03244064
Sn       2.50595684       4.20832802       2.55069547     118.71000000      -0.05451484       0.04817399       0.04054347
Sn       2.50389032       0.83728093       4.18168328     118.71000000      -0.05808328       0.06163166      -0.02419485
Te       0.83924904       4.20857515       5.84294736     127.60000000      -0.04693652       0.09141531       0.21884973
Te       0.83961168       0.84034284       0.88899672     127.60000000      -0.03999917       0.08584013      -0.20260241
Te       4.19653238       5.89871262       5.84160919     127.60000000      -0.04390750      -0.08683207       0.21775238
Te       4.19828776       2.52809832       0.89169934     127.60000000      -0.04453819      -0.07767534      -0.21047024
Au       0.00257726       3.40101216       1.71457600     196.96656900       0.10007608       0.10461896       0.08836804
Au       3.35993115       3.33463905       5.02188988     196.96656900       0.10405331      -0.09126053      -0.10246463
Au       3.36222326       6.70679445       1.71550531     196.96656900       0.09766541      -0.10316088       0.07574675
Au       0.00127555       0.03232532       5.02238126     196.96656900       0.09646882       0.10151744      -0.11117218
10
Lattice="5.1778664165 -0.0008546292 2.9893361332 1.7251107039 4.8813452471 2.9894037115 -2.08831e-05 6.80047e-05 5.9787084211" Properties=species:S:1:pos:R:3:masses:R:1:forces:R:3 source_id=matbench-1000-random-relaxed-sample-158-mpid-wbm-4-16095 material_id=wbm-4-16095 energy=-27.348720206689904 mtt::matbench_energy=-26.841 pbc="T T T"
K        0.00306429      -0.00473787      -0.00273816      39.09830000      -0.00930482       0.00852989       0.00600018
Rb       1.72606783       1.22095683       2.99017312      85.46780000       0.00036972      -0.00261044      -0.00226360
Rb       5.17845700       3.66032669       8.96930773      85.46780000      -0.00176481      -0.00067543      -0.00326119
Cu       3.45080161       2.44208392       5.97716022      63.54600000      -0.01794039      -0.03850793       0.02005640
H        2.79016019       3.37817715       7.12558346       1.00800000      -0.07534412       0.10458630       0.12736859
H        4.11416282       1.50414926       7.12709528       1.00800000       0.07003531      -0.10106389       0.12158592
H        2.78921319       3.37979591       4.83117849       1.00800000      -0.07750359       0.10654728      -0.13407686
H        2.12545619       1.50465529       5.98024045       1.00800000      -0.13149984      -0.09306905      -0.00289558
H        4.77190941       3.37358272       5.97937557       1.00800000       0.16995969       0.12145351      -0.00195378
H        4.11401051       1.50352390       4.83114101       1.00800000       0.07299285      -0.10519077      -0.13056010
4
Lattice="4.7129035137 0.0008189151 2.7194952612 1.5715026749 4.4430121161 2.7199061669 -0.000115893 0.0004213103 5.4391912536" Properties=species:S:1:pos:R:3:masses:R:1:forces:R:3 source_id=matbench-1000-random-relaxed-sample-106-mpid-wbm-3-36836 material_id=wbm-3-36836 energy=-9.5454992558698 mtt::matbench_energy=-9.13 pbc="T T T"
Sr       0.00041195       0.00037400       0.00154564      87.62000000      -0.00210496      -0.00176635      -0.00553533
Sr       3.14241294       2.22248919       5.43988413      87.62000000      -0.00013318      -0.00116754      -0.00120096
Li       1.57089467       1.10978412       2.71972027       6.94000000       0.00114388       0.00241324       0.00291100
Cu       4.71271588       3.33373121       8.15673898      63.54600000       0.00109452       0.00052065       0.00382554
4
Lattice="3.9951557667 -0.004062211 1.8589423434 1.5568836764 3.6867983259 1.8671066056 0.378689779 0.2630382268 4.427622878" Properties=species:S:1:pos:R:3:masses:R:1:forces:R:3 source_id=matbench-1000-random-relaxed-sample-254-mpid-wbm-3-78093 material_id=wbm-3-78093 energy=-27.40566817189756 mtt::matbench_energy=-25.311 pbc="T T T"
Nb       1.48305477       0.98689781       2.03813173      92.90637000      -0.00332212      -0.00324165       0.00260247
Zn       4.44866828       2.95815095       6.11564535      65.38000000      -0.00557441       0.00944083      -0.00272691
Pt       0.38844756       0.26865922       4.40669938     195.08400000       0.03067506       0.01221608      -0.05892763
Pt       2.95461703       1.96799438       4.09764015     195.08400000      -0.02177879      -0.01841501       0.05905207
12
Lattice="5.3557191034 6.97996e-05 0.0005430526 7.0284e-05 5.5729410558 5.56262e-05 0.0007640902 7.56957e-05 7.4881301733" Properties=species:S:1:pos:R:3:masses:R:1:forces:R:3 source_id=matbench-1000-random-relaxed-sample-472-mpid-wbm-1-1777 material_id=wbm-1-1777 energy=-53.52588823575934 mtt::matbench_energy=-50.883 pbc="T T T"
Ca       1.34011237       2.03652883       4.48800422      40.07800000      -0.00125778       0.01182810      -0.02528191
Ca       4.01793579       3.53608129       2.99917325      40.07800000      -0.00273360      -0.00868544       0.03145025
Ca       4.01864027       2.03681080       6.74474583      40.07800000      -0.00467838       0.00959844       0.02552745
Ca       1.33910506       3.53709795       0.74418955      40.07800000       0.00196175      -0.01402280      -0.02742596
Al      -0.00054648       0.55657939       1.87217715      26.98153850       0.00284107       0.08452373       0.00123696
Al       2.67742370       0.55640174       1.87259141      26.98153850       0.00323496       0.08403033      -0.00215124
Al       2.67811140       5.01681750       5.61638994      26.98153850       0.00241221      -0.08428770       0.00209622
Al       0.00027034       5.01598731       5.61630469      26.98153850       0.00170824      -0.08254115      -0.00330901
Ni       1.33850230       0.62385241       7.32123021      58.69340000       0.00398418       0.06639180       0.09562627
Ni       1.33939673       4.94923861       3.57726993      58.69340000      -0.00206717      -0.06642316       0.09437980
Ni       4.01743938       0.62433429       3.91226425      58.69340000      -0.00218955       0.06299897      -0.09901292
Ni       4.01721091       4.94871942       0.16748963      58.69340000      -0.00321594      -0.06341086      -0.09313590
6
Lattice="4.3657597288 2.45231e-05 0.0005940199 2.44902e-05 4.3633377579 -9.97018e-05 0.0010680829 -0.0001827763 7.5532751457" Properties=species:S:1:pos:R:3:masses:R:1:forces:R:3 source_id=matbench-1000-random-relaxed-sample-471-mpid-wbm-1-33679 material_id=wbm-1-33679 energy=-19.300195578701278 mtt::matbench_energy=-18.556 pbc="T T T"
Na       1.09385410       1.09046724       4.77160646      22.98976928      -0.00202192      -0.00005554       0.06556570
Na       3.27582831       3.27148501       2.78119667      22.98976928      -0.00029593       0.00178229      -0.06307430
In       3.27343650       1.09066871       0.00195484     114.81800000       0.00395616      -0.00134289      -0.00318791
In       1.09041747       3.27175572      -0.00106193     114.81800000      -0.00082455       0.00932950       0.00228982
Si       1.09173099       1.09263637       1.68636557      28.08500000      -0.00202192      -0.00774031       0.19452375
Si       3.27422148       3.27270822       5.86797167      28.08500000       0.00120816      -0.00197306      -0.19611655
8
Lattice="4.0108446183 5.75758e-05 -0.9416770364 -0.2223213193 4.0058871862 -0.9421190224 -0.0115564786 -0.0132041247 8.9560068235" Properties=species:S:1:pos:R:3:masses:R:1:forces:R:3 source_id=matbench-1000-random-relaxed-sample-317-mpid-wbm-4-1659 material_id=wbm-4-1659 energy=-46.80303910749808 mtt::matbench_energy=-48.097 pbc="T T T"
Zr       0.00052868      -0.00039962      -0.00013725      91.22400000      -0.00604492       0.00146784      -0.00013987
Zr       0.91163638       0.96281409       3.87694136      91.22400000      -0.04635622      -0.04167218      -0.15094689
Zr       2.86658137       3.03011151       3.19540765      91.22400000       0.03645516       0.04087026       0.14665187
Al       1.89471160       2.00250895      -0.94107572      26.98153850      -0.00126524       0.00225897      -0.00432280
Al       2.46763279       0.48877249       1.49712705      26.98153850       0.03621142       0.03562649       0.14315208
Al       0.35021397       2.49187713       1.49696898      26.98153850       0.03955359       0.03290781       0.14446231
Al       1.30879448       3.50465068       5.57456775      26.98153850      -0.02865083      -0.03872698      -0.13907457
Al       3.42506284       1.50085907       5.57493445      26.98153850      -0.02990321      -0.03273220      -0.13978213
8
Lattice="6.3917218032 0.042773098 0.0021732646 -1.9262824019 6.0828600419 -0.0010029263 0.0020559113 -0.0004345687 5.7374784623" Properties=species:S:1:pos:R:3:masses:R:1:forces:R:3 source_id=matbench-1000-random-relaxed-sample-719-mpid-wbm-2-38927 material_id=wbm-2-38927 energy=-26.45171751039925 mtt::matbench_energy=-27.715 pbc="T T T"
Rb       5.64670882       1.95685220       4.30619368      85.46780000      -0.01022733       0.06354276      -0.00287681
Rb      -1.17363317       4.16447449       1.43188235      85.46780000       0.00192884      -0.05896465       0.00390036
Rb       4.33293064       0.17052107       1.43619761      85.46780000      -0.06057879      -0.01694537       0.00057078
Rb       0.13708453       5.95648829       4.30365631      85.46780000       0.06145219       0.01031835      -0.00265312
P        1.15650308       1.58510488       1.43457982      30.97376200       0.09811895       0.12404261       0.00017432
P        3.31299288       4.53625128       4.30270224      30.97376200      -0.08440212      -0.12837544       0.00080141
Pd       2.22845365       3.06439936       2.86962886     106.42000000      -0.00204403       0.00703480      -0.00097676
Pd       2.22791286       3.06692003       0.00101511     106.42000000      -0.00424746      -0.00065306       0.00106007
4
Lattice="3.6493668268 0.0001510594 2.1069868627 1.2166830834 3.4402707225 2.1068395665 0.0002428685 -8.6717e-06 4.2135530698" Properties=species:S:1:pos:R:3:masses:R:1:forces:R:3 source_id=matbench-1000-random-relaxed-sample-597-mpid-wbm-1-30077 material_id=wbm-1-30077 energy=-19.35263682490222 mtt::matbench_energy=-22.376 pbc="T T T"
Mn       1.21732143       0.85938455       2.10694261      54.93804400      -0.00452206       0.00429837      -0.00056101
Zn       3.64951365       2.58059900       6.32045302      65.38000000       0.00062838      -0.00164705       0.00070937
Pd      -0.00029251       0.00009886       0.00028446     106.42000000       0.00212296      -0.00046408      -0.00235590
Pd       2.43289660       1.72053726       4.21338916     106.42000000       0.00177072      -0.00218724       0.00220755
3
Lattice="3.7729847162 0.0005613332 2.1783752471 1.2583235493 3.555697538 2.1781449584 -0.0003239608 -0.0005111766 4.3573116249" Properties=species:S:1:pos:R:3:masses:R:1:forces:R:3 source_id=matbench-1000-random-relaxed-sample-19-mpid-wbm-4-15061 material_id=wbm-4-15061 energy=-13.012505815800978 mtt::matbench_energy=-13.397 pbc="T T T"
In       0.00038011       0.00090955      -0.00041836     114.81800000      -0.00076850      -0.00509824      -0.00027125
Ge       2.51539136       1.77806384       4.35772078      72.63000000      -0.00063481      -0.00346585      -0.00376744
Pd       1.25746676       0.88783737       2.17807145     106.42000000       0.00140305       0.00856409       0.00403869
4
Lattice="3.4986947248 0.0001408547 2.0197935944 1.1664746422 3.2985097955 2.0195894235 0.0001615119 -0.0001414576 4.0393140135" Properties=species:S:1:pos:R:3:masses:R:1:forces:R:3 source_id=matbench-1000-random-relaxed-sample-166-mpid-wbm-1-25514 material_id=wbm-1-25514 energy=-25.29708433368978 mtt::matbench_energy=-26.439 pbc="T T T"
Li       1.16569692       0.82332302       2.02047439       6.94000000       0.00219701       0.01090379      -0.00605341
Mn       3.50134371       2.47428714       6.05833972      54.93804400      -0.01795093      -0.00172161       0.00455060
Rh       4.66409778       3.29878111       4.03958049     102.90550000       0.01059706      -0.00028925      -0.00256108
Rh       2.33201677       1.65002316       4.03903597     102.90550000       0.00515686      -0.00889293       0.00406389
10
Lattice="3.6874925354 -0.0002752381 0.0004985145 -0.000275307 3.6886078252 0.0005340267 0.0012372269 0.0013579797 9.6145668312" Properties=species:S:1:pos:R:3:masses:R:1:forces:R:3 source_id=matbench-1000-random-relaxed-sample-393-mpid-wbm-3-10041 material_id=wbm-3-10041 energy=-50.96421832138003 mtt::matbench_energy=-51.869 pbc="T T T"
Sc       0.92213618       0.92277385       7.21553024      44.95590800       0.00237519      -0.00086569       0.14055861
Sc       2.76508102       2.76623544       2.39734413      44.95590800      -0.00307273       0.00561426      -0.12911360
Be       2.76572719       2.76976486       8.29445792       9.01218310       0.00763386      -0.01090508       0.04489455
Be       0.92101485       0.92388428       1.32168007       9.01218310       0.00770354      -0.01123289      -0.04423506
Be       0.92502112       2.76609915       4.80802504       9.01218310      -0.01098915       0.00434619      -0.00551630
Be       2.76614464       0.92082057       4.80845701       9.01218310      -0.01167384       0.00319460      -0.00536821
Si       0.92250140       2.76654943       0.00134858      28.08500000      -0.00824167       0.00872195      -0.00430685
Si       2.76641775       0.92279306       0.00114199      28.08500000      -0.00703042       0.00238316      -0.00746546
Si       0.92042280       0.92258303       3.48731102      28.08500000       0.01561791      -0.00464624      -0.24836342
Si       2.76656812       2.76559112       6.12813393      28.08500000       0.00767706       0.00338974       0.25891574
3
Lattice="3.4575870047 1.31475e-05 0.0007509284 0.0004635004 3.4991247818 2.0179350583 0.0008633617 -0.0020568633 4.0394314531" Properties=species:S:1:pos:R:3:masses:R:1:forces:R:3 source_id=matbench-1000-random-relaxed-sample-258-mpid-wbm-3-59161 material_id=wbm-3-59161 energy=-18.30887620329031 mtt::matbench_energy=-20.18 pbc="T T T"
Sc       0.00044326       0.00046438      -0.00019547      44.95590800      -0.00680854      -0.00439504      -0.00280507
P        1.73199623       2.33144194       4.03948522      30.97376200      -0.00173729       0.00160771      -0.00358540
Pd       1.72647438       1.16517475       2.01882769     106.42000000       0.00854583       0.00278759       0.00639048
8
Lattice="4.0710352128 -0.0018213136 -1.1876299262 -0.1942677245 5.1216261345 -0.6606535268 0.2203680714 0.1201926938 8.3261097882" Properties=species:S:1:pos:R:3:masses:R:1:forces:R:3 source_id=matbench-1000-random-relaxed-sample-323-mpid-wbm-2-8678 material_id=wbm-2-8678 energy=-37.055421754001145 mtt::matbench_energy=-35.588 pbc="T T T"
Ca       3.48949565       2.29877431       4.39365382      40.07800000       0.04595410       0.01588993       0.15626188
Ca       0.60696300       2.94342988       2.08297169      40.07800000      -0.04165007      -0.00783235      -0.14257230
Ca       0.00024631      -0.00518068      -0.00003332      40.07800000      -0.00340106      -0.00013370      -0.00522371
Ga       1.47114333       4.85143439       5.04806226      69.72300000       0.06121102      -0.04511977       0.20008427
Ga       1.94146274       2.55084268      -0.91495704      69.72300000      -0.00384303      -0.00591919      -0.01006870
Ga       2.62372758       0.39576755       1.42404117      69.72300000      -0.04693009       0.04640481      -0.17184122
Ru       3.10389428       4.80607316       3.07198317     101.07000000       0.07782858       0.13930905       0.29137360
Ru       0.99285735       0.43875877       3.40361486     101.07000000      -0.08916920      -0.14259852      -0.31801409
8
Lattice="4.4296752836 -0.0015667613 0.0015734061 -0.0028640883 4.7456042091 -2.742617369 0.0021164853 -0.0009380157 5.4836090092" Properties=species:S:1:pos:R:3:masses:R:1:forces:R:3 source_id=matbench-1000-random-relaxed-sample-819-mpid-wbm-1-60515 material_id=wbm-1-60515 energy=-29.617370059604582 mtt::matbench_energy=-30.84 pbc="T T T"
Ta       1.10548772       3.16231344       0.00011960     180.94788000       0.01075390       0.02334716      -0.01094621
Ta       3.32143140       1.57843122       2.74304000     180.94788000       0.01514174       0.01434316      -0.00096673
Zn       3.32256947       3.97802826      -1.41373706      65.38000000      -0.00809152      -0.11136399       0.18214749
Zn       3.32081364       1.53072054       0.00048433      65.38000000      -0.00243303       0.21171132       0.00449377
Zn       3.32100693       3.97665469       1.41377495      65.38000000      -0.00148815      -0.10884328      -0.17850012
Zn       1.10762497       0.76602316       4.15635507      65.38000000      -0.00508410       0.09633589      -0.18481989
Zn       1.10877098       3.21298409       2.74083277      65.38000000      -0.00611614      -0.21759271       0.00794831
Zn       1.10800561       0.76722337       1.32938506      65.38000000      -0.00268217       0.09206246       0.18064339
4
Lattice="3.9899769518 0.0001914032 2.3036062402 1.3302188205 3.7618907906 2.3035264867 7.3759e-06 -9.24604e-05 4.6071997053" Properties=species:S:1:pos:R:3:masses:R:1:forces:R:3 source_id=matbench-1000-random-relaxed-sample-585-mpid-wbm-1-33875 material_id=wbm-1-33875 energy=-24.89870998529841 mtt::matbench_energy=-24.376 pbc="T T T"
Na       1.32995504       0.94027730       2.30350574      22.98976928       0.00076387       0.00176403       0.00046486
Zr       3.99046948       2.82143244       6.90907189      91.22400000      -0.00334501       0.00082764       0.01805917
Pt      -0.00030415       0.00047742       0.00081152     195.08400000       0.00223352      -0.00310384      -0.00889679
Pt       2.66017372       1.88080121       4.60810950     195.08400000       0.00034761       0.00051242      -0.00962724
6
Lattice="3.4029842643 -0.000270016 -0.0006983799 -0.0002699974 3.4023811568 7.33706e-05 -0.0021078169 0.0002218041 10.1314939243" Properties=species:S:1:pos:R:3:masses:R:1:forces:R:3 source_id=matbench-1000-random-relaxed-sample-73-mpid-wbm-1-53010 material_id=wbm-1-53010 energy=-51.82659211254213 mtt::matbench_energy=-50.45 pbc="T T T"
Nb       0.85022022       0.84935247       7.70992051      92.90637000      -0.00267678       0.00342188       0.69677846
Nb       2.55070737       2.54953358       2.42302846      92.90637000       0.00160848       0.00961567      -0.72212054
Nb       2.54896204       2.55530933       9.39893713      92.90637000       0.01411536      -0.01336331       0.15140789
Nb       0.85102125       0.85337126       0.73156104      92.90637000      -0.01214178      -0.00648869      -0.14460552
Se       2.55166245       2.55026801       6.66815343      78.97100000      -0.00464573       0.00702657      -0.88253783
Se       0.84924605       0.84916422       3.46100616      78.97100000       0.00374070      -0.00021237       0.90107780
4
Lattice="4.3410080489 2.87178e-05 -0.0006352376 -2.1704788126 3.7632358088 0.0015940318 -0.0012334188 0.0028780793 7.7130274174" Properties=species:S:1:pos:R:3:masses:R:1:forces:R:3 source_id=matbench-1000-random-relaxed-sample-798-mpid-wbm-3-46963 material_id=wbm-3-46963 energy=-18.266416787300386 mtt::matbench_energy=-19.359 pbc="T T T"
Na      -0.00174309       0.00050433       3.85553494      22.98976928       0.00174424       0.00165373       0.00455291
Y       -0.00071042      -0.00099893       0.00159888      88.90584000       0.00544971       0.00667844      -0.01883230
Te      -0.00027509       2.50883155       1.76656087     127.60000000       0.00243663      -0.00635448       0.00187819
Te       2.17140771       1.25924470       5.94680524     127.60000000      -0.00963058      -0.00197795       0.01240120
8
Lattice="4.6063093066 -0.0001740299 0.0002284117 -0.0002460945 6.5153403945 0.0002655902 0.0002284034 0.0001878051 4.6062221105" Properties=species:S:1:pos:R:3:masses:R:1:forces:R:3 source_id=matbench-1000-random-relaxed-sample-13-mpid-wbm-4-40248 material_id=wbm-4-40248 energy=-64.74728147099813 mtt::matbench_energy=-64.672 pbc="T T T"
Zr       3.45389439       5.70211470       0.00014614      91.22400000       0.00214559      -0.01106166       0.00014295
Zr       1.15097878       2.44462555       2.30301012      91.22400000       0.00217001      -0.01104623       0.00017226
Zr       1.14993147       0.81521335      -0.00122486      91.22400000       0.01534434      -0.00596033       0.01229116
Zr       3.45307544       4.07289036       2.30213322      91.22400000       0.01533637      -0.00593719       0.01232535
Pt       3.45558798       2.44184157       0.00063168     195.08400000      -0.00916907       0.01028416      -0.00333241
Pt       1.15242715       5.69969260       2.30376128     195.08400000      -0.00924080       0.01028338      -0.00335478
Pt       1.15264809       4.07116305       0.00143509     195.08400000      -0.00832986       0.00672395      -0.00911070
Pt       3.45603738       0.81349988       2.30452755     195.08400000      -0.00825684       0.00671366      -0.00913333
10
Lattice="4.4058662403 0.000209249 -0.0003123792 0.0003561755 7.4157970355 0.0020331066 -0.0005300802 0.0020316926 7.4159009099" Properties=species:S:1:pos:R:3:masses:R:1:forces:R:3 source_id=matbench-1000-random-relaxed-sample-890-mpid-wbm-4-40059 material_id=wbm-4-40059 energy=-44.87673894699765 mtt::matbench_energy=-49.982 pbc="T T T"
Y        2.20136401       2.45665673       1.24831604      88.90584000      -0.01049524      -0.10714172       0.11661701
Y        2.20100208       6.16626278       2.45943570      88.90584000      -0.00419681      -0.11485632      -0.11229139
Y        2.20030135       1.25300693       4.95691090      88.90584000      -0.00355249       0.10883788       0.11438581
Y        2.20093225       4.95795923       6.16595688      88.90584000      -0.00617399       0.12441002      -0.11411404
Zn       0.00902260      -0.00071218       0.00394605      65.38000000       0.00795242       0.00190750      -0.01039060
Zn       0.00821013       3.70873978       3.70989831      65.38000000       0.00733227       0.00490772      -0.00357563
Sn      -0.00207462       4.73477179       1.02767754     118.71000000       0.00157737      -0.17596784      -0.17016795
Sn      -0.00275568       1.02885729       2.68120545     118.71000000       0.00483984      -0.17773650       0.17705979
Sn      -0.00210138       6.39194040       4.73733996     118.71000000      -0.00114697       0.16979359      -0.17118327
Sn      -0.00295085       2.68315759       6.38938405     118.71000000       0.00386360       0.16584541       0.17366028
12
Lattice="5.6605619369 -0.0005424783 -0.0010219551 -0.0005423455 5.6619035449 -0.0002877239 -0.0010221211 -0.0002878634 5.6622584853" Properties=species:S:1:pos:R:3:masses:R:1:forces:R:3 source_id=matbench-1000-random-relaxed-sample-395-mpid-wbm-4-29653 material_id=wbm-4-29653 energy=-84.90124661655864 mtt::matbench_energy=-87.283 pbc="T T T"
Sc       3.35435951       2.30795402       5.13786343      44.95590800      -0.11871066       0.10997868       0.11624831
Sc       2.30495209       5.13719577       3.35410494      44.95590800       0.11178771       0.12010163      -0.11100661
Sc       0.52333434       0.52304637       0.52345138      44.95590800      -0.11166661      -0.11605677      -0.11016020
Sc       5.13595867       3.35352080       2.30697182      44.95590800       0.11042734      -0.11806223       0.11055923
Co       3.23530197       5.25676654       0.40212044      58.93319400      -0.03393779       0.01188595      -0.02099820
Co       0.39855389       3.23340272       5.26219080      58.93319400      -0.00557055      -0.01984866       0.00509927
Co       2.42236861       2.42309358       2.42269918      58.93319400       0.03671895       0.02434732       0.04084557
Co       5.25792251       0.40644743       3.23394675      58.93319400       0.01398372      -0.03530716      -0.01722433
P        1.06511203       1.76825382       3.89822433      30.97376200      -0.06649310       0.06422770      -0.07101772
P        3.89414604       1.06303790       1.76496286      30.97376200      -0.06251303      -0.05391243       0.06834661
P        1.76561957       3.89542464       1.06450417      30.97376200       0.06793189      -0.05338870      -0.07043846
P        4.59635558       4.59829564       4.59465276      30.97376200       0.05804214       0.06603493       0.05974678
10
Lattice="4.0056260176 0.0007401864 -0.0001301247 0.0007401459 4.0057517993 3.21048e-05 -0.0003209002 7.86925e-05 9.76371339" Properties=species:S:1:pos:R:3:masses:R:1:forces:R:3 source_id=matbench-1000-random-relaxed-sample-174-mpid-wbm-3-47495 material_id=wbm-3-47495 energy=-53.26538738639647 mtt::matbench_energy=-53.974 pbc="T T T"
Y        3.00524353       3.00676974       7.37035157      88.90584000      -0.00266829      -0.00765006      -0.13383363
Y        1.00136742       1.00283082       2.39650998      88.90584000      -0.00082327      -0.00777682       0.11396775
Ga       3.00431103       3.00446412       1.25688378      69.72300000       0.00748705       0.00402609      -0.08663563
Ga       3.00344925       1.00137921       4.88138279      69.72300000       0.00495503      -0.00052425       0.00638199
Ga       1.00174864       1.00258335       8.50627263      69.72300000       0.00119119       0.00311052       0.08459752
Ga       1.00128920       3.00354155       4.88146497      69.72300000       0.00155012      -0.00006916       0.00676663
Ni       1.00102014       1.00031929       6.18264154      58.69340000      -0.00115237       0.00420710       0.05998718
Ni       1.00245693       3.00524976      -0.00071789      58.69340000      -0.00634523       0.00060164       0.00564974
Ni       3.00514683       1.00160608      -0.00129221      58.69340000      -0.00195147       0.00155192       0.00904823
Ni       3.00451424       3.00403078       3.58086630      58.69340000      -0.00224303       0.00252379      -0.06592977
8
Lattice="3.4361639813 -2.46058e-05 -0.0003664054 -1.7181033287 2.974709967 -0.0012665354 -0.0015800464 -0.0072554122 15.7041006597" Properties=species:S:1:pos:R:3:masses:R:1:forces:R:3 source_id=matbench-1000-random-relaxed-sample-40-mpid-wbm-5-13932 material_id=wbm-5-13932 energy=-34.46834732543721 mtt::matbench_energy=-32.881 pbc="T T T"
In       0.00114624       1.98570327       9.16678125     114.81800000      -0.00311746      -0.01394155      -0.01198751
In       1.71775193       0.99164446       6.53950292     114.81800000       0.00171158      -0.00809178       0.00008228
In       1.71952839       0.99301027       1.31362733     114.81800000      -0.00157943      -0.00727571      -0.01155145
In      -0.00092581       1.97590145      14.38932927     114.81800000      -0.00008922      -0.00543223       0.00153032
Pb      -0.00072307       1.97967184       3.92745873     207.20000000       0.00026611       0.00087906      -0.00315783
Pb       1.71063474       0.98240465      11.77822936     207.20000000       0.00174655       0.00231965       0.00197821
N        0.00087301      -0.00391369      -0.00680571      14.00700000       0.00069394       0.01259995       0.00765083
N        0.00036638      -0.00576013       7.85133037      14.00700000       0.00036767       0.01894260       0.01545490
4